
     Program PWSCF v.6.4 starts on 10Apr2019 at  0:51:17 

     This program is part of the open-source Quantum ESPRESSO suite
     for quantum simulation of materials; please cite
         "P. Giannozzi et al., J. Phys.:Condens. Matter 21 395502 (2009);
         "P. Giannozzi et al., J. Phys.:Condens. Matter 29 465901 (2017);
          URL http://www.quantum-espresso.org", 
     in publications or presentations arising from this work. More details at
     http://www.quantum-espresso.org/quote

     Serial multi-threaded version, running on    6 processor cores
     Waiting for input...
     Reading input from standard input

     Current dimensions of program PWSCF are:
     Max number of different atomic species (ntypx) = 10
     Max number of k-points (npk) =  40000
     Max angular momentum in pseudopotentials (lmaxx) =  3
               file Bi.pz-dn-rrkjus_psl.1.0.0.UPF: wavefunction(s)  5D renormalized
     Found symmetry operation: I + ( -0.3333  0.3333  0.3333)
     This is a supercell, fractional translations are disabled

     G-vector sticks info
     --------------------
     sticks:   dense  smooth     PW     G-vecs:    dense   smooth      PW
     Sum        2515    1261    361               252985    89447   13593



     bravais-lattice index     =            0
     lattice parameter (alat)  =      10.6547  a.u.
     unit-cell volume          =    2614.6950 (a.u.)^3
     number of atoms/cell      =           30
     number of atomic types    =            4
     number of electrons       =       294.00
     number of Kohn-Sham states=          294
     kinetic-energy cutoff     =      40.0000  Ry
     charge density cutoff     =     320.0000  Ry
     convergence threshold     =      1.0E-06
     mixing beta               =       0.4000
     number of iterations used =            8  plain     mixing
     Exchange-correlation      =  SLA  PZ   NOGX NOGC ( 1  1  0  0 0 0)

     celldm(1)=  10.654661  celldm(2)=   0.000000  celldm(3)=   0.000000
     celldm(4)=   0.000000  celldm(5)=   0.000000  celldm(6)=   0.000000

     crystal axes: (cart. coord. in units of alat)
               a(1) = (   1.000000   0.000000  -0.000000 )  
               a(2) = (  -0.500000   0.866025  -0.000000 )  
               a(3) = (   0.000000   0.000000   2.496155 )  

     reciprocal axes: (cart. coord. in units 2 pi/alat)
               b(1) = (  1.000000  0.577350 -0.000000 )  
               b(2) = ( -0.000000  1.154701  0.000000 )  
               b(3) = (  0.000000  0.000000  0.400616 )  


     PseudoPot. # 1 for Bi read from file:
     /home/ngt/.burai/.pseudopot/Bi.pz-dn-rrkjus_psl.1.0.0.UPF
     MD5 check sum: 30ed9582656127c1bc49cf5897a59f42
     Pseudo is Ultrasoft + core correction, Zval = 15.0
     Generated using "atomic" code by A. Dal Corso v.6.2.2
     Using radial grid of 1283 points,  6 beta functions with: 
                l(1) =   0
                l(2) =   0
                l(3) =   1
                l(4) =   1
                l(5) =   2
                l(6) =   2
     Q(r) pseudized with 0 coefficients 


     PseudoPot. # 2 for O  read from file:
     /home/ngt/.burai/.pseudopot/o_lda_v1.2.uspp.F.UPF
     MD5 check sum: 194b818514d2a7dbb603bb78519a4f40
     Pseudo is Ultrasoft + core correction, Zval =  6.0
     Generated by new atomic code, or converted to UPF format
     Using radial grid of  737 points,  5 beta functions with: 
                l(1) =   0
                l(2) =   0
                l(3) =   1
                l(4) =   1
                l(5) =   2
     Q(r) pseudized with  8 coefficients,  rinner =    0.900   0.900   0.900
                                                       0.900   0.900

     PseudoPot. # 3 for Fe read from file:
     /home/ngt/.burai/.pseudopot/fe_lda_v1.5.uspp.F.UPF
     MD5 check sum: 70aee299febfc78ac0df086b2000f8f7
     Pseudo is Ultrasoft + core correction, Zval = 16.0
     Generated by new atomic code, or converted to UPF format
     Using radial grid of  861 points,  6 beta functions with: 
                l(1) =   0
                l(2) =   0
                l(3) =   1
                l(4) =   1
                l(5) =   2
                l(6) =   2
     Q(r) pseudized with  8 coefficients,  rinner =    1.000   1.000   1.000
                                                       1.000   1.000

     PseudoPot. # 4 for Fe read from file:
     /home/ngt/.burai/.pseudopot/fe_lda_v1.5.uspp.F.UPF
     MD5 check sum: 70aee299febfc78ac0df086b2000f8f7
     Pseudo is Ultrasoft + core correction, Zval = 16.0
     Generated by new atomic code, or converted to UPF format
     Using radial grid of  861 points,  6 beta functions with: 
                l(1) =   0
                l(2) =   0
                l(3) =   1
                l(4) =   1
                l(5) =   2
                l(6) =   2
     Q(r) pseudized with  8 coefficients,  rinner =    1.000   1.000   1.000
                                                       1.000   1.000

     atomic species   valence    mass     pseudopotential
        Bi            15.00   208.98038     Bi( 1.00)
        O              6.00    15.99940     O ( 1.00)
        Fe1           16.00    55.84500     Fe( 1.00)
        Fe2           16.00    55.84500     Fe( 1.00)

     Starting magnetic structure 
     atomic species   magnetization
        Bi           0.000
        O            0.000
        Fe1          0.800
        Fe2         -0.800


     Simplified LDA+U calculation (l_max = 2) with parameters (eV):
     atomic species    L          U    alpha       J0     beta
        Fe1            2     2.4300   0.0000   0.0000   0.0000
        Fe2            2     2.4300   0.0000   0.0000   0.0000



      3 Sym. Ops. (no inversion) found


                                    s                        frac. trans.

      isym =  1     identity                                     

 cryst.   s( 1) = (     1          0          0      )
                  (     0          1          0      )
                  (     0          0          1      )

 cart.    s( 1) = (  1.0000000  0.0000000  0.0000000 )
                  (  0.0000000  1.0000000  0.0000000 )
                  (  0.0000000  0.0000000  1.0000000 )


      isym =  2     120 deg rotation - cryst. axis [0,0,1]       

 cryst.   s( 2) = (     0          1          0      )
                  (    -1         -1          0      )
                  (     0          0          1      )

 cart.    s( 2) = ( -0.5000000 -0.8660254  0.0000000 )
                  (  0.8660254 -0.5000000  0.0000000 )
                  (  0.0000000  0.0000000  1.0000000 )


      isym =  3     120 deg rotation - cryst. axis [0,0,-1]      

 cryst.   s( 3) = (    -1         -1          0      )
                  (     1          0          0      )
                  (     0          0          1      )

 cart.    s( 3) = ( -0.5000000  0.8660254  0.0000000 )
                  ( -0.8660254 -0.5000000  0.0000000 )
                  (  0.0000000  0.0000000  1.0000000 )


   Cartesian axes

     site n.     atom                  positions (alat units)
         1           Fe1 tau(   1) = (   0.0000000   0.0000000   0.6985776  )
         2           Fe2 tau(   2) = (   0.5000005   0.2886748   0.2825564  )
         3           Fe1 tau(   3) = (   0.5000005   0.2886748   1.5306360  )
         4           Fe2 tau(   4) = (  -0.0000005   0.5773505   1.1145958  )
         5           Fe1 tau(   5) = (  -0.0000005   0.5773505   2.3626695  )
         6           Fe2 tau(   6) = (   0.0000000   0.0000000   1.9466681  )
         7           Bi  tau(   7) = (  -0.0000005   0.5773505   0.4200321  )
         8           Bi  tau(   8) = (   0.0000000   0.0000000   0.0040159  )
         9           Bi  tau(   9) = (   0.0000000   0.0000000   1.2520984  )
        10           Bi  tau(  10) = (   0.5000005   0.2886748   0.8360602  )
        11           Bi  tau(  11) = (   0.5000005   0.2886748   2.0841436  )
        12           Bi  tau(  12) = (  -0.0000005   0.5773505   1.6681117  )
        13           O   tau(  13) = (   0.6984987   0.0853327   0.5387765  )
        14           O   tau(  14) = (   0.5768504   0.5622513   0.5387765  )
        15           O   tau(  15) = (   0.2246509   0.2184414   0.5387765  )
        16           O   tau(  16) = (   0.2753499   0.5071158   0.1227567  )
        17           O   tau(  17) = (  -0.1984997   0.3740075   0.1227567  )
        18           O   tau(  18) = (  -0.0768501   0.8509274   0.1227567  )
        19           O   tau(  19) = (   0.1984987   0.3740076   1.3708274  )
        20           O   tau(  20) = (   0.0768506   0.8509265   1.3708274  )
        21           O   tau(  21) = (  -0.2753492   0.5071167   1.3708274  )
        22           O   tau(  22) = (  -0.2246502   0.7957908   0.9547978  )
        23           O   tau(  23) = (   0.3015002   0.6626827   0.9547978  )
        24           O   tau(  24) = (  -0.0768500   0.2735772   0.9547978  )
        25           O   tau(  25) = (  -0.3015049   0.6626846   2.2028821  )
        26           O   tau(  26) = (   0.0768507   0.2735721   2.2028821  )
        27           O   tau(  27) = (   0.2246542   0.7957940   2.2028821  )
        28           O   tau(  28) = (   0.7753507   0.2184423   1.7868570  )
        29           O   tau(  29) = (   0.3015012   0.0853309   1.7868570  )
        30           O   tau(  30) = (   0.4231481   0.5622522   1.7868570  )

   Crystallographic axes

     site n.     atom                  positions (cryst. coord.)
         1           Fe1 tau(   1) = (  0.0000000  0.0000000  0.2798615  )
         2           Fe2 tau(   2) = (  0.6666670  0.3333330  0.1131967  )
         3           Fe1 tau(   3) = (  0.6666670  0.3333330  0.6131975  )
         4           Fe2 tau(   4) = (  0.3333330  0.6666670  0.4465251  )
         5           Fe1 tau(   5) = (  0.3333330  0.6666670  0.9465236  )
         6           Fe2 tau(   6) = (  0.0000000  0.0000000  0.7798667  )
         7           Bi  tau(   7) = (  0.3333330  0.6666670  0.1682716  )
         8           Bi  tau(   8) = (  0.0000000  0.0000000  0.0016088  )
         9           Bi  tau(   9) = (  0.0000000  0.0000000  0.5016109  )
        10           Bi  tau(  10) = (  0.6666670  0.3333330  0.3349393  )
        11           Bi  tau(  11) = (  0.6666670  0.3333330  0.8349416  )
        12           Bi  tau(  12) = (  0.3333330  0.6666670  0.6682725  )
        13           O   tau(  13) = (  0.7477656  0.0985337  0.2158426  )
        14           O   tau(  14) = (  0.9014663  0.6492319  0.2158426  )
        15           O   tau(  15) = (  0.3507681  0.2522344  0.2158426  )
        16           O   tau(  16) = (  0.5681333  0.5855669  0.0491783  )
        17           O   tau(  17) = (  0.0174336  0.4318667  0.0491783  )
        18           O   tau(  18) = (  0.4144331  0.9825664  0.0491783  )
        19           O   tau(  19) = (  0.4144321  0.4318668  0.5491756  )
        20           O   tau(  20) = (  0.5681332  0.9825653  0.5491756  )
        21           O   tau(  21) = (  0.0174347  0.5855679  0.5491756  )
        22           O   tau(  22) = (  0.2347999  0.9189001  0.3825074  )
        23           O   tau(  23) = (  0.6841002  0.7652001  0.3825074  )
        24           O   tau(  24) = (  0.0810999  0.3158998  0.3825074  )
        25           O   tau(  25) = (  0.0810962  0.7652023  0.8825102  )
        26           O   tau(  26) = (  0.2347977  0.3158939  0.8825102  )
        27           O   tau(  27) = (  0.6841061  0.9189038  0.8825102  )
        28           O   tau(  28) = (  0.9014684  0.2522354  0.7158438  )
        29           O   tau(  29) = (  0.3507670  0.0985316  0.7158438  )
        30           O   tau(  30) = (  0.7477646  0.6492330  0.7158438  )

     number of k points=    44  gaussian smearing, width (Ry)=  0.0100
                       cart. coord. in units 2pi/alat
        k(    1) = (   0.0000000   0.0000000   0.0000000), wk =   0.0046296
        k(    2) = (   0.0000000   0.0000000   0.0667694), wk =   0.0092593
        k(    3) = (   0.0000000   0.0000000   0.1335387), wk =   0.0092593
        k(    4) = (   0.0000000   0.0000000  -0.2003081), wk =   0.0046296
        k(    5) = (   0.0000000   0.1924501   0.0000000), wk =   0.0277778
        k(    6) = (   0.0000000   0.1924501   0.0667694), wk =   0.0277778
        k(    7) = (   0.0000000   0.1924501   0.1335387), wk =   0.0277778
        k(    8) = (   0.0000000   0.1924501  -0.2003081), wk =   0.0277778
        k(    9) = (   0.0000000   0.3849002   0.0000000), wk =   0.0277778
        k(   10) = (   0.0000000   0.3849002   0.0667694), wk =   0.0277778
        k(   11) = (   0.0000000   0.3849002   0.1335387), wk =   0.0277778
        k(   12) = (   0.0000000   0.3849002  -0.2003081), wk =   0.0277778
        k(   13) = (   0.0000000  -0.5773503   0.0000000), wk =   0.0138889
        k(   14) = (   0.0000000  -0.5773503   0.0667694), wk =   0.0277778
        k(   15) = (   0.0000000  -0.5773503   0.1335387), wk =   0.0277778
        k(   16) = (   0.0000000  -0.5773503  -0.2003081), wk =   0.0138889
        k(   17) = (   0.1666667   0.2886751   0.0000000), wk =   0.0277778
        k(   18) = (   0.1666667   0.2886751   0.0667694), wk =   0.0277778
        k(   19) = (   0.1666667   0.2886751   0.1335387), wk =   0.0277778
        k(   20) = (   0.1666667   0.2886751  -0.2003081), wk =   0.0277778
        k(   21) = (   0.1666667   0.4811252   0.0000000), wk =   0.0277778
        k(   22) = (   0.1666667   0.4811252   0.0667694), wk =   0.0277778
        k(   23) = (   0.1666667   0.4811252   0.1335387), wk =   0.0277778
        k(   24) = (   0.1666667   0.4811252  -0.2003081), wk =   0.0277778
        k(   25) = (   0.3333333   0.5773503   0.0000000), wk =   0.0092593
        k(   26) = (   0.3333333   0.5773503   0.0667694), wk =   0.0092593
        k(   27) = (   0.3333333   0.5773503   0.1335387), wk =   0.0092593
        k(   28) = (   0.3333333   0.5773503  -0.2003081), wk =   0.0092593
        k(   29) = (  -0.1666667   0.0962250   0.0667694), wk =   0.0277778
        k(   30) = (  -0.1666667   0.0962250   0.1335387), wk =   0.0277778
        k(   31) = (  -0.3333333   0.1924501   0.0667694), wk =   0.0277778
        k(   32) = (  -0.3333333   0.1924501   0.1335387), wk =   0.0277778
        k(   33) = (   0.1666667  -0.2886751  -0.0667694), wk =   0.0277778
        k(   34) = (   0.1666667  -0.2886751  -0.1335387), wk =   0.0277778
        k(   35) = (   0.1666667  -0.4811252   0.0000000), wk =   0.0277778
        k(   36) = (   0.1666667  -0.4811252  -0.0667694), wk =   0.0277778
        k(   37) = (  -0.3333333   0.3849002   0.0667694), wk =   0.0277778
        k(   38) = (  -0.1666667   0.4811252  -0.0667694), wk =   0.0277778
        k(   39) = (   0.1666667  -0.4811252  -0.1335387), wk =   0.0277778
        k(   40) = (  -0.3333333   0.3849002   0.1335387), wk =   0.0277778
        k(   41) = (  -0.1666667   0.4811252  -0.1335387), wk =   0.0277778
        k(   42) = (   0.1666667  -0.4811252   0.2003081), wk =   0.0277778
        k(   43) = (   0.3333333  -0.5773503  -0.0667694), wk =   0.0092593
        k(   44) = (   0.3333333  -0.5773503  -0.1335387), wk =   0.0092593

                       cryst. coord.
        k(    1) = (   0.0000000   0.0000000   0.0000000), wk =   0.0046296
        k(    2) = (   0.0000000   0.0000000   0.1666667), wk =   0.0092593
        k(    3) = (   0.0000000   0.0000000   0.3333333), wk =   0.0092593
        k(    4) = (   0.0000000   0.0000000  -0.5000000), wk =   0.0046296
        k(    5) = (   0.0000000   0.1666667   0.0000000), wk =   0.0277778
        k(    6) = (   0.0000000   0.1666667   0.1666667), wk =   0.0277778
        k(    7) = (   0.0000000   0.1666667   0.3333333), wk =   0.0277778
        k(    8) = (   0.0000000   0.1666667  -0.5000000), wk =   0.0277778
        k(    9) = (   0.0000000   0.3333333   0.0000000), wk =   0.0277778
        k(   10) = (   0.0000000   0.3333333   0.1666667), wk =   0.0277778
        k(   11) = (   0.0000000   0.3333333   0.3333333), wk =   0.0277778
        k(   12) = (   0.0000000   0.3333333  -0.5000000), wk =   0.0277778
        k(   13) = (   0.0000000  -0.5000000   0.0000000), wk =   0.0138889
        k(   14) = (   0.0000000  -0.5000000   0.1666667), wk =   0.0277778
        k(   15) = (   0.0000000  -0.5000000   0.3333333), wk =   0.0277778
        k(   16) = (   0.0000000  -0.5000000  -0.5000000), wk =   0.0138889
        k(   17) = (   0.1666667   0.1666667   0.0000000), wk =   0.0277778
        k(   18) = (   0.1666667   0.1666667   0.1666667), wk =   0.0277778
        k(   19) = (   0.1666667   0.1666667   0.3333333), wk =   0.0277778
        k(   20) = (   0.1666667   0.1666667  -0.5000000), wk =   0.0277778
        k(   21) = (   0.1666667   0.3333333   0.0000000), wk =   0.0277778
        k(   22) = (   0.1666667   0.3333333   0.1666667), wk =   0.0277778
        k(   23) = (   0.1666667   0.3333333   0.3333333), wk =   0.0277778
        k(   24) = (   0.1666667   0.3333333  -0.5000000), wk =   0.0277778
        k(   25) = (   0.3333333   0.3333333   0.0000000), wk =   0.0092593
        k(   26) = (   0.3333333   0.3333333   0.1666667), wk =   0.0092593
        k(   27) = (   0.3333333   0.3333333   0.3333333), wk =   0.0092593
        k(   28) = (   0.3333333   0.3333333  -0.5000000), wk =   0.0092593
        k(   29) = (  -0.1666667   0.1666667   0.1666667), wk =   0.0277778
        k(   30) = (  -0.1666667   0.1666667   0.3333333), wk =   0.0277778
        k(   31) = (  -0.3333333   0.3333333   0.1666667), wk =   0.0277778
        k(   32) = (  -0.3333333   0.3333333   0.3333333), wk =   0.0277778
        k(   33) = (   0.1666667  -0.3333333  -0.1666667), wk =   0.0277778
        k(   34) = (   0.1666667  -0.3333333  -0.3333333), wk =   0.0277778
        k(   35) = (   0.1666667  -0.5000000   0.0000000), wk =   0.0277778
        k(   36) = (   0.1666667  -0.5000000  -0.1666667), wk =   0.0277778
        k(   37) = (  -0.3333333   0.5000000   0.1666667), wk =   0.0277778
        k(   38) = (  -0.1666667   0.5000000  -0.1666667), wk =   0.0277778
        k(   39) = (   0.1666667  -0.5000000  -0.3333333), wk =   0.0277778
        k(   40) = (  -0.3333333   0.5000000   0.3333333), wk =   0.0277778
        k(   41) = (  -0.1666667   0.5000000  -0.3333333), wk =   0.0277778
        k(   42) = (   0.1666667  -0.5000000   0.5000000), wk =   0.0277778
        k(   43) = (   0.3333333  -0.6666667  -0.1666667), wk =   0.0092593
        k(   44) = (   0.3333333  -0.6666667  -0.3333333), wk =   0.0092593

     Dense  grid:   252985 G-vectors     FFT dimensions: (  64,  64, 160)

     Smooth grid:    89447 G-vectors     FFT dimensions: (  45,  45, 108)

     Dynamical RAM for                 wfc:      50.11 MB

     Dynamical RAM for     wfc (w. buffer):    4459.75 MB

     Dynamical RAM for             U proj.:       5.11 MB

     Dynamical RAM for  U proj. (w. buff.):     455.08 MB

     Dynamical RAM for           str. fact:      15.44 MB

     Dynamical RAM for           local pot:       0.00 MB

     Dynamical RAM for          nlocal pot:      76.70 MB

     Dynamical RAM for                qrad:       9.73 MB

     Dynamical RAM for          rho,v,vnew:      53.16 MB

     Dynamical RAM for               rhoin:      17.72 MB

     Dynamical RAM for            rho*nmix:     123.53 MB

     Dynamical RAM for           G-vectors:      15.16 MB

     Dynamical RAM for          h,s,v(r/c):       3.96 MB

     Dynamical RAM for          <psi|beta>:       2.02 MB

     Dynamical RAM for      wfcinit/wfcrot:     102.20 MB

     Dynamical RAM for           addusdens:     791.35 MB

     Estimated static dynamical RAM per process >       5.15 GB

     Estimated max dynamical RAM per process >       5.92 GB
     Generating pointlists ...
     new r_m :   0.1696 (alat units)  1.8074 (a.u.) for type    1
     new r_m :   0.1451 (alat units)  1.5459 (a.u.) for type    2
     new r_m :   0.1451 (alat units)  1.5459 (a.u.) for type    3
     new r_m :   0.1451 (alat units)  1.5459 (a.u.) for type    4

     Check: negative core charge=   -0.000012

     Initial potential from superposition of free atoms

     starting charge  287.99607, renormalised to  294.00000
 --- in v_hubbard ---
Hubbard energy    0.4286
 -------
     Number of +U iterations with fixed ns =  0
     Starting occupations:
 --- enter write_ns ---
 LDA+U parameters:
U( 3)     =  2.43000000
alpha( 3) =  0.00000000
U( 4)     =  2.43000000
alpha( 4) =  0.00000000
atom    1   Tr[ns(na)] (up, down, total) =   5.00000  1.00000  6.00000
   spin  1
    eigenvalues: 
  1.000  1.000  1.000  1.000  1.000
    eigenvectors:
  1.000  0.000  0.000  0.000  0.000
  0.000  1.000  0.000  0.000  0.000
  0.000  0.000  1.000  0.000  0.000
  0.000  0.000  0.000  1.000  0.000
  0.000  0.000  0.000  0.000  1.000
    occupations:
  1.000  0.000  0.000  0.000  0.000
  0.000  1.000  0.000  0.000  0.000
  0.000  0.000  1.000  0.000  0.000
  0.000  0.000  0.000  1.000  0.000
  0.000  0.000  0.000  0.000  1.000
   spin  2
    eigenvalues: 
  0.200  0.200  0.200  0.200  0.200
    eigenvectors:
  1.000  0.000  0.000  0.000  0.000
  0.000  1.000  0.000  0.000  0.000
  0.000  0.000  1.000  0.000  0.000
  0.000  0.000  0.000  1.000  0.000
  0.000  0.000  0.000  0.000  1.000
    occupations:
  0.200  0.000  0.000  0.000  0.000
  0.000  0.200  0.000  0.000  0.000
  0.000  0.000  0.200  0.000  0.000
  0.000  0.000  0.000  0.200  0.000
  0.000  0.000  0.000  0.000  0.200
atomic mag. moment =     4.000000
atom    2   Tr[ns(na)] (up, down, total) =   1.00000  5.00000  6.00000
   spin  1
    eigenvalues: 
  0.200  0.200  0.200  0.200  0.200
    eigenvectors:
  1.000  0.000  0.000  0.000  0.000
  0.000  1.000  0.000  0.000  0.000
  0.000  0.000  1.000  0.000  0.000
  0.000  0.000  0.000  1.000  0.000
  0.000  0.000  0.000  0.000  1.000
    occupations:
  0.200  0.000  0.000  0.000  0.000
  0.000  0.200  0.000  0.000  0.000
  0.000  0.000  0.200  0.000  0.000
  0.000  0.000  0.000  0.200  0.000
  0.000  0.000  0.000  0.000  0.200
   spin  2
    eigenvalues: 
  1.000  1.000  1.000  1.000  1.000
    eigenvectors:
  1.000  0.000  0.000  0.000  0.000
  0.000  1.000  0.000  0.000  0.000
  0.000  0.000  1.000  0.000  0.000
  0.000  0.000  0.000  1.000  0.000
  0.000  0.000  0.000  0.000  1.000
    occupations:
  1.000  0.000  0.000  0.000  0.000
  0.000  1.000  0.000  0.000  0.000
  0.000  0.000  1.000  0.000  0.000
  0.000  0.000  0.000  1.000  0.000
  0.000  0.000  0.000  0.000  1.000
atomic mag. moment =    -4.000000
atom    3   Tr[ns(na)] (up, down, total) =   5.00000  1.00000  6.00000
   spin  1
    eigenvalues: 
  1.000  1.000  1.000  1.000  1.000
    eigenvectors:
  1.000  0.000  0.000  0.000  0.000
  0.000  1.000  0.000  0.000  0.000
  0.000  0.000  1.000  0.000  0.000
  0.000  0.000  0.000  1.000  0.000
  0.000  0.000  0.000  0.000  1.000
    occupations:
  1.000  0.000  0.000  0.000  0.000
  0.000  1.000  0.000  0.000  0.000
  0.000  0.000  1.000  0.000  0.000
  0.000  0.000  0.000  1.000  0.000
  0.000  0.000  0.000  0.000  1.000
   spin  2
    eigenvalues: 
  0.200  0.200  0.200  0.200  0.200
    eigenvectors:
  1.000  0.000  0.000  0.000  0.000
  0.000  1.000  0.000  0.000  0.000
  0.000  0.000  1.000  0.000  0.000
  0.000  0.000  0.000  1.000  0.000
  0.000  0.000  0.000  0.000  1.000
    occupations:
  0.200  0.000  0.000  0.000  0.000
  0.000  0.200  0.000  0.000  0.000
  0.000  0.000  0.200  0.000  0.000
  0.000  0.000  0.000  0.200  0.000
  0.000  0.000  0.000  0.000  0.200
atomic mag. moment =     4.000000
atom    4   Tr[ns(na)] (up, down, total) =   1.00000  5.00000  6.00000
   spin  1
    eigenvalues: 
  0.200  0.200  0.200  0.200  0.200
    eigenvectors:
  1.000  0.000  0.000  0.000  0.000
  0.000  1.000  0.000  0.000  0.000
  0.000  0.000  1.000  0.000  0.000
  0.000  0.000  0.000  1.000  0.000
  0.000  0.000  0.000  0.000  1.000
    occupations:
  0.200  0.000  0.000  0.000  0.000
  0.000  0.200  0.000  0.000  0.000
  0.000  0.000  0.200  0.000  0.000
  0.000  0.000  0.000  0.200  0.000
  0.000  0.000  0.000  0.000  0.200
   spin  2
    eigenvalues: 
  1.000  1.000  1.000  1.000  1.000
    eigenvectors:
  1.000  0.000  0.000  0.000  0.000
  0.000  1.000  0.000  0.000  0.000
  0.000  0.000  1.000  0.000  0.000
  0.000  0.000  0.000  1.000  0.000
  0.000  0.000  0.000  0.000  1.000
    occupations:
  1.000  0.000  0.000  0.000  0.000
  0.000  1.000  0.000  0.000  0.000
  0.000  0.000  1.000  0.000  0.000
  0.000  0.000  0.000  1.000  0.000
  0.000  0.000  0.000  0.000  1.000
atomic mag. moment =    -4.000000
atom    5   Tr[ns(na)] (up, down, total) =   5.00000  1.00000  6.00000
   spin  1
    eigenvalues: 
  1.000  1.000  1.000  1.000  1.000
    eigenvectors:
  1.000  0.000  0.000  0.000  0.000
  0.000  1.000  0.000  0.000  0.000
  0.000  0.000  1.000  0.000  0.000
  0.000  0.000  0.000  1.000  0.000
  0.000  0.000  0.000  0.000  1.000
    occupations:
  1.000  0.000  0.000  0.000  0.000
  0.000  1.000  0.000  0.000  0.000
  0.000  0.000  1.000  0.000  0.000
  0.000  0.000  0.000  1.000  0.000
  0.000  0.000  0.000  0.000  1.000
   spin  2
    eigenvalues: 
  0.200  0.200  0.200  0.200  0.200
    eigenvectors:
  1.000  0.000  0.000  0.000  0.000
  0.000  1.000  0.000  0.000  0.000
  0.000  0.000  1.000  0.000  0.000
  0.000  0.000  0.000  1.000  0.000
  0.000  0.000  0.000  0.000  1.000
    occupations:
  0.200  0.000  0.000  0.000  0.000
  0.000  0.200  0.000  0.000  0.000
  0.000  0.000  0.200  0.000  0.000
  0.000  0.000  0.000  0.200  0.000
  0.000  0.000  0.000  0.000  0.200
atomic mag. moment =     4.000000
atom    6   Tr[ns(na)] (up, down, total) =   1.00000  5.00000  6.00000
   spin  1
    eigenvalues: 
  0.200  0.200  0.200  0.200  0.200
    eigenvectors:
  1.000  0.000  0.000  0.000  0.000
  0.000  1.000  0.000  0.000  0.000
  0.000  0.000  1.000  0.000  0.000
  0.000  0.000  0.000  1.000  0.000
  0.000  0.000  0.000  0.000  1.000
    occupations:
  0.200  0.000  0.000  0.000  0.000
  0.000  0.200  0.000  0.000  0.000
  0.000  0.000  0.200  0.000  0.000
  0.000  0.000  0.000  0.200  0.000
  0.000  0.000  0.000  0.000  0.200
   spin  2
    eigenvalues: 
  1.000  1.000  1.000  1.000  1.000
    eigenvectors:
  1.000  0.000  0.000  0.000  0.000
  0.000  1.000  0.000  0.000  0.000
  0.000  0.000  1.000  0.000  0.000
  0.000  0.000  0.000  1.000  0.000
  0.000  0.000  0.000  0.000  1.000
    occupations:
  1.000  0.000  0.000  0.000  0.000
  0.000  1.000  0.000  0.000  0.000
  0.000  0.000  1.000  0.000  0.000
  0.000  0.000  0.000  1.000  0.000
  0.000  0.000  0.000  0.000  1.000
atomic mag. moment =    -4.000000
N of occupied +U levels =   36.000000
 --- exit write_ns ---
 Atomic wfc used for LDA+U Projector are NOT orthogonalized
     Starting wfcs are  204 randomized atomic wfcs +   90 random wfcs

     total cpu time spent up to now is      136.5 secs

     Self-consistent Calculation

     iteration #  1     ecut=    40.00 Ry     beta= 0.40
     CG style diagonalization
     ethr =  1.00E-02,  avg # of iterations =  5.2
 --- enter write_ns ---
 LDA+U parameters:
U( 3)     =  2.43000000
alpha( 3) =  0.00000000
U( 4)     =  2.43000000
alpha( 4) =  0.00000000
atom    1   Tr[ns(na)] (up, down, total) =   5.00224  0.29687  5.29911
   spin  1
    eigenvalues: 
  1.000  1.000  1.000  1.001  1.001
    eigenvectors:
  0.000  0.000  1.000  0.000  0.000
  0.032  0.237  0.000  0.383  0.349
  0.236  0.032  0.000  0.349  0.383
  0.591  0.141  0.000  0.268  0.000
  0.141  0.590  0.000  0.000  0.268
    occupations:
  1.000  0.000  0.000  0.000  0.000
  0.000  1.001  0.000  0.000 -0.000
  0.000  0.000  1.001 -0.000 -0.000
  0.000  0.000 -0.000  1.000 -0.000
  0.000 -0.000 -0.000 -0.000  1.000
   spin  2
    eigenvalues: 
  0.033  0.033  0.033  0.099  0.099
    eigenvectors:
  0.000  0.000  1.000  0.000  0.000
  0.085  0.316  0.000  0.145  0.454
  0.316  0.085  0.000  0.454  0.145
  0.558  0.040  0.000  0.381  0.020
  0.040  0.558  0.000  0.020  0.381
    occupations:
  0.033  0.000  0.000  0.000  0.000
  0.000  0.072  0.000 -0.022  0.024
  0.000  0.000  0.072  0.024  0.022
  0.000 -0.022  0.024  0.059 -0.000
  0.000  0.024  0.022 -0.000  0.059
atomic mag. moment =     4.705371
atom    2   Tr[ns(na)] (up, down, total) =   0.29690  5.00224  5.29914
   spin  1
    eigenvalues: 
  0.033  0.033  0.033  0.099  0.099
    eigenvectors:
  0.000  0.000  1.000  0.000  0.000
  0.357  0.044  0.000  0.593  0.006
  0.044  0.357  0.000  0.006  0.593
  0.466  0.133  0.000  0.222  0.179
  0.133  0.466  0.000  0.179  0.222
    occupations:
  0.033  0.000  0.000  0.000  0.000
  0.000  0.072  0.000  0.022  0.024
  0.000  0.000  0.072  0.024 -0.022
  0.000  0.022  0.024  0.059 -0.000
  0.000  0.024 -0.022 -0.000  0.059
   spin  2
    eigenvalues: 
  1.000  1.000  1.000  1.001  1.001
    eigenvectors:
  0.000  0.000  1.000  0.000  0.000
  0.258  0.010  0.000  0.731  0.001
  0.010  0.258  0.000  0.001  0.731
  0.521  0.211  0.000  0.147  0.121
  0.211  0.521  0.000  0.121  0.147
    occupations:
  1.000  0.000  0.000  0.000  0.000
  0.000  1.001  0.000 -0.000 -0.000
  0.000  0.000  1.001 -0.000  0.000
  0.000 -0.000 -0.000  1.000 -0.000
  0.000 -0.000  0.000 -0.000  1.000
atomic mag. moment =    -4.705343
atom    3   Tr[ns(na)] (up, down, total) =   5.00224  0.29685  5.29909
   spin  1
    eigenvalues: 
  1.000  1.000  1.000  1.001  1.001
    eigenvectors:
  0.000  0.000  1.000  0.000  0.000
  0.032  0.237  0.000  0.382  0.349
  0.237  0.032  0.000  0.350  0.382
  0.590  0.141  0.000  0.269  0.000
  0.141  0.590  0.000  0.000  0.269
    occupations:
  1.000  0.000  0.000  0.000  0.000
  0.000  1.001  0.000  0.000 -0.000
  0.000  0.000  1.001 -0.000 -0.000
  0.000  0.000 -0.000  1.000 -0.000
  0.000 -0.000 -0.000 -0.000  1.000
   spin  2
    eigenvalues: 
  0.033  0.033  0.033  0.099  0.099
    eigenvectors:
  0.000  0.000  1.000  0.000  0.000
  0.085  0.316  0.000  0.145  0.454
  0.316  0.085  0.000  0.454  0.145
  0.558  0.040  0.000  0.381  0.020
  0.040  0.558  0.000  0.020  0.381
    occupations:
  0.033  0.000  0.000  0.000  0.000
  0.000  0.072  0.000 -0.022  0.024
  0.000  0.000  0.072  0.024  0.022
  0.000 -0.022  0.024  0.059 -0.000
  0.000  0.024  0.022 -0.000  0.059
atomic mag. moment =     4.705387
atom    4   Tr[ns(na)] (up, down, total) =   0.29682  5.00224  5.29906
   spin  1
    eigenvalues: 
  0.033  0.033  0.033  0.099  0.099
    eigenvectors:
  0.000  0.000  1.000  0.000  0.000
  0.357  0.044  0.000  0.593  0.006
  0.044  0.357  0.000  0.006  0.593
  0.466  0.133  0.000  0.222  0.179
  0.133  0.466  0.000  0.179  0.222
    occupations:
  0.033  0.000  0.000  0.000  0.000
  0.000  0.072  0.000  0.022  0.024
  0.000  0.000  0.072  0.024 -0.022
  0.000  0.022  0.024  0.059 -0.000
  0.000  0.024 -0.022 -0.000  0.059
   spin  2
    eigenvalues: 
  1.000  1.000  1.000  1.001  1.001
    eigenvectors:
  0.000  0.000  1.000  0.000  0.000
  0.258  0.010  0.000  0.731  0.001
  0.010  0.258  0.000  0.001  0.731
  0.521  0.211  0.000  0.147  0.122
  0.211  0.520  0.000  0.122  0.147
    occupations:
  1.000  0.000  0.000  0.000  0.000
  0.000  1.001  0.000 -0.000 -0.000
  0.000  0.000  1.001 -0.000  0.000
  0.000 -0.000 -0.000  1.000 -0.000
  0.000 -0.000  0.000 -0.000  1.000
atomic mag. moment =    -4.705418
atom    5   Tr[ns(na)] (up, down, total) =   5.00224  0.29677  5.29901
   spin  1
    eigenvalues: 
  1.000  1.000  1.000  1.001  1.001
    eigenvectors:
  0.000  0.000  1.000  0.000  0.000
  0.032  0.237  0.000  0.381  0.350
  0.237  0.032  0.000  0.350  0.381
  0.590  0.141  0.000  0.269  0.000
  0.141  0.590  0.000  0.000  0.269
    occupations:
  1.000  0.000  0.000  0.000  0.000
  0.000  1.001  0.000  0.000 -0.000
  0.000  0.000  1.001 -0.000 -0.000
  0.000  0.000 -0.000  1.000 -0.000
  0.000 -0.000 -0.000 -0.000  1.000
   spin  2
    eigenvalues: 
  0.033  0.033  0.033  0.099  0.099
    eigenvectors:
  0.000  0.000  1.000  0.000  0.000
  0.085  0.316  0.000  0.145  0.454
  0.316  0.085  0.000  0.454  0.145
  0.558  0.040  0.000  0.381  0.021
  0.040  0.558  0.000  0.021  0.381
    occupations:
  0.033  0.000  0.000  0.000  0.000
  0.000  0.072  0.000 -0.022  0.024
  0.000  0.000  0.072  0.024  0.022
  0.000 -0.022  0.024  0.059 -0.000
  0.000  0.024  0.022 -0.000  0.059
atomic mag. moment =     4.705468
atom    6   Tr[ns(na)] (up, down, total) =   0.29682  5.00224  5.29906
   spin  1
    eigenvalues: 
  0.033  0.033  0.033  0.099  0.099
    eigenvectors:
  0.000  0.000  1.000  0.000  0.000
  0.357  0.044  0.000  0.593  0.006
  0.044  0.357  0.000  0.006  0.593
  0.466  0.133  0.000  0.222  0.179
  0.133  0.466  0.000  0.179  0.222
    occupations:
  0.033  0.000  0.000  0.000  0.000
  0.000  0.072  0.000  0.022  0.024
  0.000  0.000  0.072  0.024 -0.022
  0.000  0.022  0.024  0.059 -0.000
  0.000  0.024 -0.022 -0.000  0.059
   spin  2
    eigenvalues: 
  1.000  1.000  1.000  1.001  1.001
    eigenvectors:
  0.000  0.000  1.000  0.000  0.000
  0.259  0.010  0.000  0.730  0.001
  0.010  0.259  0.000  0.001  0.730
  0.520  0.211  0.000  0.148  0.121
  0.211  0.520  0.000  0.121  0.148
    occupations:
  1.000  0.000  0.000  0.000  0.000
  0.000  1.001  0.000 -0.000 -0.000
  0.000  0.000  1.001 -0.000  0.000
  0.000 -0.000 -0.000  1.000 -0.000
  0.000 -0.000  0.000 -0.000  1.000
atomic mag. moment =    -4.705422
N of occupied +U levels =   31.794470
 --- exit write_ns ---
 --- in v_hubbard ---
Hubbard energy    0.1456
 -------

     total cpu time spent up to now is     3283.0 secs

     total energy              =   -3007.09080890 Ry
     Harris-Foulkes estimate   =   -3007.80287526 Ry
     estimated scf accuracy    <      19.02286320 Ry

     total magnetization       =    -0.00 Bohr mag/cell
     absolute magnetization    =    30.10 Bohr mag/cell

     iteration #  2     ecut=    40.00 Ry     beta= 0.40
     CG style diagonalization
     ethr =  6.47E-03,  avg # of iterations =  3.0
 --- enter write_ns ---
 LDA+U parameters:
U( 3)     =  2.43000000
alpha( 3) =  0.00000000
U( 4)     =  2.43000000
alpha( 4) =  0.00000000
atom    1   Tr[ns(na)] (up, down, total) =   5.00023  1.30074  6.30097
   spin  1
    eigenvalues: 
  0.999  0.999  1.001  1.001  1.001
    eigenvectors:
  0.000  0.000  1.000  0.000  0.000
  0.165  0.422  0.000  0.110  0.303
  0.422  0.165  0.000  0.303  0.110
  0.391  0.023  0.000  0.550  0.037
  0.023  0.391  0.000  0.036  0.550
    occupations:
  1.001  0.000  0.000  0.000  0.000
  0.000  1.000  0.000  0.001 -0.001
  0.000  0.000  1.000 -0.001 -0.001
  0.000  0.001 -0.001  1.000 -0.000
  0.000 -0.001 -0.001 -0.000  1.000
   spin  2
    eigenvalues: 
  0.198  0.203  0.203  0.348  0.348
    eigenvectors:
  1.000  0.000  0.000  0.000  0.000
  0.000  0.040  0.352  0.074  0.534
  0.000  0.352  0.040  0.534  0.074
  0.000  0.555  0.053  0.364  0.028
  0.000  0.053  0.555  0.028  0.364
    occupations:
  0.198  0.000  0.000  0.000  0.000
  0.000  0.291  0.000 -0.042  0.057
  0.000  0.000  0.291  0.057  0.042
  0.000 -0.042  0.057  0.260 -0.000
  0.000  0.057  0.042 -0.000  0.260
atomic mag. moment =     3.699498
atom    2   Tr[ns(na)] (up, down, total) =   1.30006  5.00023  6.30029
   spin  1
    eigenvalues: 
  0.197  0.203  0.203  0.348  0.348
    eigenvectors:
  1.000  0.000  0.000  0.000  0.000
  0.000  0.327  0.065  0.592  0.016
  0.000  0.065  0.327  0.016  0.592
  0.000  0.456  0.152  0.197  0.195
  0.000  0.152  0.456  0.195  0.197
    occupations:
  0.197  0.000  0.000  0.000  0.000
  0.000  0.291  0.000  0.042  0.057
  0.000  0.000  0.291  0.057 -0.042
  0.000  0.042  0.057  0.260 -0.000
  0.000  0.057 -0.042 -0.000  0.260
   spin  2
    eigenvalues: 
  0.999  0.999  1.001  1.001  1.001
    eigenvectors:
  0.000  0.000  1.000  0.000  0.000
  0.584  0.003  0.000  0.379  0.034
  0.003  0.584  0.000  0.034  0.379
  0.240  0.174  0.000  0.460  0.127
  0.174  0.240  0.000  0.127  0.460
    occupations:
  1.001  0.000  0.000  0.000  0.000
  0.000  1.000  0.000 -0.001 -0.001
  0.000  0.000  1.000 -0.001  0.001
  0.000 -0.001 -0.001  1.000 -0.000
  0.000 -0.001  0.001 -0.000  1.000
atomic mag. moment =    -3.700172
atom    3   Tr[ns(na)] (up, down, total) =   5.00024  1.30068  6.30091
   spin  1
    eigenvalues: 
  0.999  0.999  1.001  1.001  1.001
    eigenvectors:
  0.000  0.000  1.000  0.000  0.000
  0.165  0.422  0.000  0.111  0.303
  0.422  0.165  0.000  0.303  0.111
  0.391  0.023  0.000  0.550  0.036
  0.023  0.391  0.000  0.036  0.550
    occupations:
  1.001  0.000  0.000  0.000  0.000
  0.000  1.000  0.000  0.001 -0.001
  0.000  0.000  1.000 -0.001 -0.001
  0.000  0.001 -0.001  1.000 -0.000
  0.000 -0.001 -0.001 -0.000  1.000
   spin  2
    eigenvalues: 
  0.197  0.203  0.203  0.349  0.349
    eigenvectors:
  1.000  0.000  0.000  0.000  0.000
  0.000  0.040  0.351  0.074  0.535
  0.000  0.351  0.040  0.535  0.074
  0.000  0.555  0.053  0.364  0.028
  0.000  0.053  0.555  0.028  0.364
    occupations:
  0.197  0.000  0.000  0.000  0.000
  0.000  0.292  0.000 -0.042  0.057
  0.000  0.000  0.292  0.057  0.042
  0.000 -0.042  0.057  0.260 -0.000
  0.000  0.057  0.042 -0.000  0.260
atomic mag. moment =     3.699561
atom    4   Tr[ns(na)] (up, down, total) =   1.30039  5.00023  6.30062
   spin  1
    eigenvalues: 
  0.197  0.203  0.203  0.348  0.348
    eigenvectors:
  1.000  0.000  0.000  0.000  0.000
  0.000  0.327  0.065  0.592  0.015
  0.000  0.065  0.327  0.015  0.592
  0.000  0.456  0.152  0.197  0.195
  0.000  0.152  0.456  0.195  0.197
    occupations:
  0.197  0.000  0.000  0.000  0.000
  0.000  0.291  0.000  0.042  0.057
  0.000  0.000  0.291  0.057 -0.042
  0.000  0.042  0.057  0.260 -0.000
  0.000  0.057 -0.042 -0.000  0.260
   spin  2
    eigenvalues: 
  0.999  0.999  1.001  1.001  1.001
    eigenvectors:
  0.000  0.000  1.000  0.000  0.000
  0.584  0.003  0.000  0.379  0.034
  0.003  0.584  0.000  0.034  0.379
  0.240  0.174  0.000  0.460  0.127
  0.174  0.240  0.000  0.127  0.460
    occupations:
  1.001  0.000  0.000  0.000  0.000
  0.000  1.000  0.000 -0.001 -0.001
  0.000  0.000  1.000 -0.001  0.001
  0.000 -0.001 -0.001  1.000 -0.000
  0.000 -0.001  0.001 -0.000  1.000
atomic mag. moment =    -3.699847
atom    5   Tr[ns(na)] (up, down, total) =   5.00024  1.30096  6.30119
   spin  1
    eigenvalues: 
  0.999  0.999  1.001  1.001  1.001
    eigenvectors:
  0.000  0.000  1.000  0.000  0.000
  0.165  0.422  0.000  0.111  0.303
  0.422  0.165  0.000  0.303  0.111
  0.391  0.023  0.000  0.550  0.036
  0.023  0.391  0.000  0.036  0.550
    occupations:
  1.001  0.000  0.000  0.000  0.000
  0.000  1.000  0.000  0.001 -0.001
  0.000  0.000  1.000 -0.001 -0.001
  0.000  0.001 -0.001  1.000 -0.000
  0.000 -0.001 -0.001 -0.000  1.000
   spin  2
    eigenvalues: 
  0.197  0.203  0.203  0.349  0.349
    eigenvectors:
  1.000  0.000  0.000  0.000  0.000
  0.000  0.040  0.352  0.073  0.535
  0.000  0.352  0.040  0.535  0.073
  0.000  0.555  0.053  0.364  0.029
  0.000  0.053  0.555  0.029  0.364
    occupations:
  0.197  0.000  0.000  0.000  0.000
  0.000  0.292  0.000 -0.042  0.057
  0.000  0.000  0.292  0.057  0.042
  0.000 -0.042  0.057  0.260 -0.000
  0.000  0.057  0.042 -0.000  0.260
atomic mag. moment =     3.699285
atom    6   Tr[ns(na)] (up, down, total) =   1.30015  5.00023  6.30039
   spin  1
    eigenvalues: 
  0.197  0.203  0.203  0.348  0.348
    eigenvectors:
  1.000  0.000  0.000  0.000  0.000
  0.000  0.327  0.065  0.592  0.016
  0.000  0.065  0.327  0.016  0.592
  0.000  0.456  0.152  0.197  0.195
  0.000  0.152  0.456  0.195  0.197
    occupations:
  0.197  0.000  0.000  0.000  0.000
  0.000  0.291  0.000  0.042  0.057
  0.000  0.000  0.291  0.057 -0.042
  0.000  0.042  0.057  0.260 -0.000
  0.000  0.057 -0.042 -0.000  0.260
   spin  2
    eigenvalues: 
  0.999  0.999  1.001  1.001  1.001
    eigenvectors:
  0.000  0.000  1.000  0.000  0.000
  0.584  0.003  0.000  0.379  0.034
  0.003  0.584  0.000  0.034  0.379
  0.240  0.174  0.000  0.460  0.127
  0.174  0.240  0.000  0.127  0.460
    occupations:
  1.001  0.000  0.000  0.000  0.000
  0.000  1.000  0.000 -0.001 -0.001
  0.000  0.000  1.000 -0.001  0.001
  0.000 -0.001 -0.001  1.000 -0.000
  0.000 -0.001  0.001 -0.000  1.000
atomic mag. moment =    -3.700082
N of occupied +U levels =   37.804374
 --- exit write_ns ---
 --- in v_hubbard ---
Hubbard energy    0.2705
 -------

     total cpu time spent up to now is     4553.9 secs

     total energy              =   -3010.89804457 Ry
     Harris-Foulkes estimate   =   -3010.97431914 Ry
     estimated scf accuracy    <       8.85926697 Ry

     total magnetization       =     0.00 Bohr mag/cell
     absolute magnetization    =    25.77 Bohr mag/cell

     iteration #  3     ecut=    40.00 Ry     beta= 0.40
     CG style diagonalization
     ethr =  3.01E-03,  avg # of iterations =  3.0
 --- enter write_ns ---
 LDA+U parameters:
U( 3)     =  2.43000000
alpha( 3) =  0.00000000
U( 4)     =  2.43000000
alpha( 4) =  0.00000000
atom    1   Tr[ns(na)] (up, down, total) =   4.99088  0.67249  5.66337
   spin  1
    eigenvalues: 
  0.998  0.998  0.998  0.999  0.999
    eigenvectors:
  0.000  0.000  1.000  0.000  0.000
  0.089  0.331  0.000  0.244  0.336
  0.331  0.089  0.000  0.336  0.244
  0.497  0.083  0.000  0.409  0.011
  0.083  0.497  0.000  0.011  0.409
    occupations:
  0.998  0.000  0.000  0.000  0.000
  0.000  0.998  0.000  0.000 -0.000
  0.000  0.000  0.998 -0.000 -0.000
  0.000  0.000 -0.000  0.998 -0.000
  0.000 -0.000 -0.000 -0.000  0.998
   spin  2
    eigenvalues: 
  0.083  0.084  0.084  0.211  0.211
    eigenvectors:
  1.000  0.000  0.000  0.000  0.000
  0.000  0.074  0.324  0.141  0.461
  0.000  0.324  0.074  0.461  0.141
  0.000  0.554  0.048  0.378  0.020
  0.000  0.048  0.554  0.020  0.378
    occupations:
  0.083  0.000  0.000  0.000  0.000
  0.000  0.160  0.000 -0.042  0.046
  0.000  0.000  0.160  0.046  0.042
  0.000 -0.042  0.046  0.134 -0.000
  0.000  0.046  0.042 -0.000  0.134
atomic mag. moment =     4.318393
atom    2   Tr[ns(na)] (up, down, total) =   0.67283  4.99091  5.66373
   spin  1
    eigenvalues: 
  0.083  0.084  0.084  0.211  0.211
    eigenvectors:
  1.000  0.000  0.000  0.000  0.000
  0.000  0.357  0.041  0.596  0.006
  0.000  0.041  0.357  0.006  0.596
  0.000  0.457  0.145  0.217  0.181
  0.000  0.145  0.457  0.181  0.217
    occupations:
  0.083  0.000  0.000  0.000  0.000
  0.000  0.160  0.000  0.042  0.046
  0.000  0.000  0.160  0.046 -0.042
  0.000  0.042  0.046  0.134 -0.000
  0.000  0.046 -0.042 -0.000  0.134
   spin  2
    eigenvalues: 
  0.998  0.998  0.998  0.999  0.999
    eigenvectors:
  0.000  0.000  1.000  0.000  0.000
  0.416  0.004  0.000  0.569  0.011
  0.004  0.417  0.000  0.011  0.569
  0.389  0.191  0.000  0.299  0.121
  0.191  0.389  0.000  0.121  0.299
    occupations:
  0.998  0.000  0.000  0.000  0.000
  0.000  0.998  0.000 -0.000 -0.000
  0.000  0.000  0.998 -0.000  0.000
  0.000 -0.000 -0.000  0.998 -0.000
  0.000 -0.000  0.000 -0.000  0.998
atomic mag. moment =    -4.318078
atom    3   Tr[ns(na)] (up, down, total) =   4.99088  0.67247  5.66335
   spin  1
    eigenvalues: 
  0.998  0.998  0.998  0.999  0.999
    eigenvectors:
  0.000  0.000  1.000  0.000  0.000
  0.089  0.331  0.000  0.244  0.336
  0.331  0.089  0.000  0.336  0.244
  0.497  0.083  0.000  0.409  0.011
  0.083  0.497  0.000  0.011  0.409
    occupations:
  0.998  0.000  0.000  0.000  0.000
  0.000  0.998  0.000  0.000 -0.000
  0.000  0.000  0.998 -0.000 -0.000
  0.000  0.000 -0.000  0.998 -0.000
  0.000 -0.000 -0.000 -0.000  0.998
   spin  2
    eigenvalues: 
  0.083  0.084  0.084  0.211  0.211
    eigenvectors:
  1.000  0.000  0.000  0.000  0.000
  0.000  0.074  0.324  0.141  0.461
  0.000  0.324  0.074  0.461  0.141
  0.000  0.554  0.048  0.378  0.020
  0.000  0.048  0.554  0.020  0.378
    occupations:
  0.083  0.000  0.000  0.000  0.000
  0.000  0.160  0.000 -0.042  0.046
  0.000  0.000  0.160  0.046  0.042
  0.000 -0.042  0.046  0.134 -0.000
  0.000  0.046  0.042 -0.000  0.134
atomic mag. moment =     4.318413
atom    4   Tr[ns(na)] (up, down, total) =   0.67265  4.99090  5.66355
   spin  1
    eigenvalues: 
  0.083  0.084  0.084  0.211  0.211
    eigenvectors:
  1.000  0.000  0.000  0.000  0.000
  0.000  0.357  0.041  0.596  0.006
  0.000  0.041  0.357  0.006  0.596
  0.000  0.458  0.145  0.217  0.181
  0.000  0.145  0.458  0.181  0.217
    occupations:
  0.083  0.000  0.000  0.000  0.000
  0.000  0.160  0.000  0.042  0.046
  0.000  0.000  0.160  0.046 -0.042
  0.000  0.042  0.046  0.134 -0.000
  0.000  0.046 -0.042 -0.000  0.134
   spin  2
    eigenvalues: 
  0.998  0.998  0.998  0.999  0.999
    eigenvectors:
  0.000  0.000  1.000  0.000  0.000
  0.416  0.004  0.000  0.569  0.011
  0.004  0.416  0.000  0.011  0.569
  0.390  0.191  0.000  0.298  0.121
  0.191  0.389  0.000  0.121  0.299
    occupations:
  0.998  0.000  0.000  0.000  0.000
  0.000  0.998  0.000 -0.000 -0.000
  0.000  0.000  0.998 -0.000  0.000
  0.000 -0.000 -0.000  0.998 -0.000
  0.000 -0.000  0.000 -0.000  0.998
atomic mag. moment =    -4.318247
atom    5   Tr[ns(na)] (up, down, total) =   4.99087  0.67231  5.66319
   spin  1
    eigenvalues: 
  0.998  0.998  0.998  0.999  0.999
    eigenvectors:
  0.000  0.000  1.000  0.000  0.000
  0.088  0.331  0.000  0.244  0.336
  0.331  0.088  0.000  0.337  0.244
  0.497  0.084  0.000  0.409  0.011
  0.084  0.497  0.000  0.011  0.409
    occupations:
  0.998  0.000  0.000  0.000  0.000
  0.000  0.998  0.000  0.000 -0.000
  0.000  0.000  0.998 -0.000 -0.000
  0.000  0.000 -0.000  0.998 -0.000
  0.000 -0.000 -0.000 -0.000  0.998
   spin  2
    eigenvalues: 
  0.083  0.084  0.084  0.211  0.211
    eigenvectors:
  1.000  0.000  0.000  0.000  0.000
  0.000  0.074  0.324  0.141  0.461
  0.000  0.324  0.074  0.461  0.141
  0.000  0.554  0.048  0.378  0.020
  0.000  0.048  0.554  0.020  0.378
    occupations:
  0.083  0.000  0.000  0.000  0.000
  0.000  0.160  0.000 -0.042  0.046
  0.000  0.000  0.160  0.046  0.042
  0.000 -0.042  0.046  0.134 -0.000
  0.000  0.046  0.042 -0.000  0.134
atomic mag. moment =     4.318558
atom    6   Tr[ns(na)] (up, down, total) =   0.67271  4.99090  5.66361
   spin  1
    eigenvalues: 
  0.083  0.084  0.084  0.211  0.211
    eigenvectors:
  1.000  0.000  0.000  0.000  0.000
  0.000  0.357  0.041  0.596  0.006
  0.000  0.041  0.357  0.006  0.596
  0.000  0.458  0.145  0.217  0.181
  0.000  0.145  0.458  0.181  0.217
    occupations:
  0.083  0.000  0.000  0.000  0.000
  0.000  0.160  0.000  0.042  0.046
  0.000  0.000  0.160  0.046 -0.042
  0.000  0.042  0.046  0.134 -0.000
  0.000  0.046 -0.042 -0.000  0.134
   spin  2
    eigenvalues: 
  0.998  0.998  0.998  0.999  0.999
    eigenvectors:
  0.000  0.000  1.000  0.000  0.000
  0.417  0.004  0.000  0.569  0.011
  0.004  0.417  0.000  0.011  0.569
  0.389  0.191  0.000  0.299  0.121
  0.191  0.389  0.000  0.121  0.299
    occupations:
  0.998  0.000  0.000  0.000  0.000
  0.000  0.998  0.000 -0.000 -0.000
  0.000  0.000  0.998 -0.000  0.000
  0.000 -0.000 -0.000  0.998 -0.000
  0.000 -0.000  0.000 -0.000  0.998
atomic mag. moment =    -4.318190
N of occupied +U levels =   33.980805
 --- exit write_ns ---
 --- in v_hubbard ---
Hubbard energy    0.3241
 -------

     total cpu time spent up to now is     5817.7 secs

     total energy              =   -3012.67246019 Ry
     Harris-Foulkes estimate   =   -3011.77808716 Ry
     estimated scf accuracy    <       2.40236949 Ry

     total magnetization       =     0.00 Bohr mag/cell
     absolute magnetization    =    27.95 Bohr mag/cell

     iteration #  4     ecut=    40.00 Ry     beta= 0.40
     CG style diagonalization
     ethr =  8.17E-04,  avg # of iterations =  3.0
 --- enter write_ns ---
 LDA+U parameters:
U( 3)     =  2.43000000
alpha( 3) =  0.00000000
U( 4)     =  2.43000000
alpha( 4) =  0.00000000
atom    1   Tr[ns(na)] (up, down, total) =   4.98636  1.34555  6.33192
   spin  1
    eigenvalues: 
  0.994  0.994  0.999  0.999  0.999
    eigenvectors:
  0.000  0.000  1.000  0.000  0.000
  0.192  0.394  0.000  0.125  0.289
  0.394  0.192  0.000  0.289  0.125
  0.392  0.022  0.000  0.548  0.038
  0.022  0.392  0.000  0.038  0.548
    occupations:
  0.999  0.000  0.000  0.000  0.000
  0.000  0.996  0.000  0.002 -0.002
  0.000  0.000  0.996 -0.002 -0.002
  0.000  0.002 -0.002  0.997 -0.000
  0.000 -0.002 -0.002 -0.000  0.997
   spin  2
    eigenvalues: 
  0.204  0.204  0.204  0.367  0.367
    eigenvectors:
  0.000  0.000  1.000  0.000  0.000
  0.055  0.333  0.000  0.128  0.484
  0.333  0.055  0.000  0.484  0.128
  0.556  0.056  0.000  0.370  0.018
  0.056  0.556  0.000  0.018  0.370
    occupations:
  0.204  0.000  0.000  0.000  0.000
  0.000  0.304  0.000 -0.051  0.061
  0.000  0.000  0.304  0.061  0.051
  0.000 -0.051  0.061  0.267 -0.000
  0.000  0.061  0.051 -0.000  0.267
atomic mag. moment =     3.640808
atom    2   Tr[ns(na)] (up, down, total) =   1.34400  4.98632  6.33032
   spin  1
    eigenvalues: 
  0.204  0.204  0.204  0.366  0.366
    eigenvectors:
  0.000  0.000  1.000  0.000  0.000
  0.342  0.046  0.000  0.604  0.008
  0.046  0.342  0.000  0.008  0.604
  0.458  0.154  0.000  0.204  0.184
  0.154  0.458  0.000  0.184  0.204
    occupations:
  0.204  0.000  0.000  0.000  0.000
  0.000  0.303  0.000  0.051  0.061
  0.000  0.000  0.303  0.061 -0.051
  0.000  0.051  0.061  0.267 -0.000
  0.000  0.061 -0.051 -0.000  0.267
   spin  2
    eigenvalues: 
  0.994  0.994  0.999  0.999  0.999
    eigenvectors:
  0.000  0.000  1.000  0.000  0.000
  0.585  0.001  0.000  0.389  0.025
  0.001  0.585  0.000  0.025  0.389
  0.247  0.167  0.000  0.460  0.127
  0.167  0.247  0.000  0.127  0.460
    occupations:
  0.999  0.000  0.000  0.000  0.000
  0.000  0.996  0.000 -0.002 -0.002
  0.000  0.000  0.996 -0.002  0.002
  0.000 -0.002 -0.002  0.997 -0.000
  0.000 -0.002  0.002 -0.000  0.997
atomic mag. moment =    -3.642316
atom    3   Tr[ns(na)] (up, down, total) =   4.98637  1.34564  6.33200
   spin  1
    eigenvalues: 
  0.994  0.994  0.999  0.999  0.999
    eigenvectors:
  0.000  0.000  1.000  0.000  0.000
  0.192  0.394  0.000  0.125  0.289
  0.394  0.192  0.000  0.289  0.125
  0.392  0.022  0.000  0.548  0.038
  0.022  0.392  0.000  0.038  0.548
    occupations:
  0.999  0.000  0.000  0.000  0.000
  0.000  0.996  0.000  0.002 -0.002
  0.000  0.000  0.996 -0.002 -0.002
  0.000  0.002 -0.002  0.997 -0.000
  0.000 -0.002 -0.002 -0.000  0.997
   spin  2
    eigenvalues: 
  0.204  0.204  0.204  0.367  0.367
    eigenvectors:
  0.000  0.000  1.000  0.000  0.000
  0.055  0.333  0.000  0.127  0.484
  0.333  0.055  0.000  0.484  0.127
  0.556  0.056  0.000  0.370  0.018
  0.056  0.556  0.000  0.018  0.370
    occupations:
  0.204  0.000  0.000  0.000  0.000
  0.000  0.304  0.000 -0.051  0.061
  0.000  0.000  0.304  0.061  0.051
  0.000 -0.051  0.061  0.267 -0.000
  0.000  0.061  0.051 -0.000  0.267
atomic mag. moment =     3.640733
atom    4   Tr[ns(na)] (up, down, total) =   1.34471  4.98633  6.33104
   spin  1
    eigenvalues: 
  0.204  0.204  0.204  0.367  0.367
    eigenvectors:
  0.000  0.000  1.000  0.000  0.000
  0.342  0.046  0.000  0.603  0.008
  0.046  0.342  0.000  0.008  0.603
  0.458  0.154  0.000  0.204  0.184
  0.154  0.458  0.000  0.184  0.204
    occupations:
  0.204  0.000  0.000  0.000  0.000
  0.000  0.303  0.000  0.051  0.061
  0.000  0.000  0.303  0.061 -0.051
  0.000  0.051  0.061  0.267 -0.000
  0.000  0.061 -0.051 -0.000  0.267
   spin  2
    eigenvalues: 
  0.994  0.994  0.999  0.999  0.999
    eigenvectors:
  0.000  0.000  1.000  0.000  0.000
  0.585  0.001  0.000  0.389  0.025
  0.001  0.586  0.000  0.025  0.389
  0.246  0.167  0.000  0.460  0.127
  0.167  0.246  0.000  0.127  0.460
    occupations:
  0.999  0.000  0.000  0.000  0.000
  0.000  0.996  0.000 -0.002 -0.002
  0.000  0.000  0.996 -0.002  0.002
  0.000 -0.002 -0.002  0.997 -0.000
  0.000 -0.002  0.002 -0.000  0.997
atomic mag. moment =    -3.641614
atom    5   Tr[ns(na)] (up, down, total) =   4.98639  1.34622  6.33262
   spin  1
    eigenvalues: 
  0.994  0.994  0.999  0.999  0.999
    eigenvectors:
  0.000  0.000  1.000  0.000  0.000
  0.192  0.394  0.000  0.125  0.289
  0.394  0.192  0.000  0.289  0.125
  0.392  0.022  0.000  0.548  0.038
  0.022  0.392  0.000  0.038  0.548
    occupations:
  0.999  0.000  0.000  0.000  0.000
  0.000  0.996  0.000  0.002 -0.002
  0.000  0.000  0.996 -0.002 -0.002
  0.000  0.002 -0.002  0.997 -0.000
  0.000 -0.002 -0.002 -0.000  0.997
   spin  2
    eigenvalues: 
  0.204  0.204  0.205  0.367  0.367
    eigenvectors:
  0.000  0.000  1.000  0.000  0.000
  0.056  0.333  0.000  0.128  0.484
  0.333  0.056  0.000  0.484  0.128
  0.556  0.056  0.000  0.370  0.018
  0.056  0.556  0.000  0.018  0.370
    occupations:
  0.205  0.000  0.000  0.000  0.000
  0.000  0.304  0.000 -0.051  0.061
  0.000  0.000  0.304  0.061  0.051
  0.000 -0.051  0.061  0.267 -0.000
  0.000  0.061  0.051 -0.000  0.267
atomic mag. moment =     3.640169
atom    6   Tr[ns(na)] (up, down, total) =   1.34460  4.98633  6.33093
   spin  1
    eigenvalues: 
  0.204  0.204  0.204  0.367  0.367
    eigenvectors:
  0.000  0.000  1.000  0.000  0.000
  0.342  0.046  0.000  0.603  0.008
  0.046  0.342  0.000  0.008  0.603
  0.458  0.154  0.000  0.204  0.184
  0.154  0.458  0.000  0.184  0.204
    occupations:
  0.204  0.000  0.000  0.000  0.000
  0.000  0.303  0.000  0.051  0.061
  0.000  0.000  0.303  0.061 -0.051
  0.000  0.051  0.061  0.267 -0.000
  0.000  0.061 -0.051 -0.000  0.267
   spin  2
    eigenvalues: 
  0.994  0.994  0.999  0.999  0.999
    eigenvectors:
  0.000  0.000  1.000  0.000  0.000
  0.586  0.001  0.000  0.389  0.025
  0.001  0.586  0.000  0.025  0.389
  0.246  0.167  0.000  0.460  0.127
  0.167  0.246  0.000  0.127  0.460
    occupations:
  0.999  0.000  0.000  0.000  0.000
  0.000  0.996  0.000 -0.002 -0.002
  0.000  0.000  0.996 -0.002  0.002
  0.000 -0.002 -0.002  0.997 -0.000
  0.000 -0.002  0.002 -0.000  0.997
atomic mag. moment =    -3.641724
N of occupied +U levels =   37.988823
 --- exit write_ns ---
 --- in v_hubbard ---
Hubbard energy    0.4076
 -------

     total cpu time spent up to now is     7081.7 secs

     total energy              =   -3012.97352672 Ry
     Harris-Foulkes estimate   =   -3013.01402739 Ry
     estimated scf accuracy    <       1.16943882 Ry

     total magnetization       =    -0.00 Bohr mag/cell
     absolute magnetization    =    25.09 Bohr mag/cell

     iteration #  5     ecut=    40.00 Ry     beta= 0.40
     CG style diagonalization
     ethr =  3.98E-04,  avg # of iterations =  3.2
 --- enter write_ns ---
 LDA+U parameters:
U( 3)     =  2.43000000
alpha( 3) =  0.00000000
U( 4)     =  2.43000000
alpha( 4) =  0.00000000
atom    1   Tr[ns(na)] (up, down, total) =   4.96647  1.07837  6.04484
   spin  1
    eigenvalues: 
  0.989  0.989  0.996  0.996  0.996
    eigenvectors:
  0.000  0.000  1.000  0.000  0.000
  0.180  0.388  0.000  0.139  0.293
  0.388  0.180  0.000  0.293  0.139
  0.404  0.027  0.000  0.534  0.035
  0.028  0.404  0.000  0.035  0.534
    occupations:
  0.996  0.000  0.000  0.000  0.000
  0.000  0.992  0.000  0.003 -0.002
  0.000  0.000  0.992 -0.002 -0.003
  0.000  0.003 -0.002  0.993 -0.000
  0.000 -0.002 -0.003 -0.000  0.993
   spin  2
    eigenvalues: 
  0.146  0.146  0.150  0.318  0.318
    eigenvectors:
  0.000  0.000  1.000  0.000  0.000
  0.080  0.315  0.000  0.171  0.434
  0.315  0.080  0.000  0.434  0.171
  0.551  0.054  0.000  0.378  0.017
  0.054  0.551  0.000  0.017  0.378
    occupations:
  0.150  0.000  0.000  0.000  0.000
  0.000  0.250  0.000 -0.058  0.060
  0.000  0.000  0.250  0.060  0.058
  0.000 -0.058  0.060  0.214 -0.000
  0.000  0.060  0.058 -0.000  0.214
atomic mag. moment =     3.888103
atom    2   Tr[ns(na)] (up, down, total) =   1.08004  4.96662  6.04666
   spin  1
    eigenvalues: 
  0.147  0.147  0.150  0.319  0.319
    eigenvectors:
  0.000  0.000  1.000  0.000  0.000
  0.365  0.030  0.000  0.601  0.003
  0.030  0.365  0.000  0.003  0.601
  0.454  0.151  0.000  0.221  0.174
  0.151  0.454  0.000  0.174  0.221
    occupations:
  0.150  0.000  0.000  0.000  0.000
  0.000  0.251  0.000  0.058  0.060
  0.000  0.000  0.251  0.060 -0.058
  0.000  0.058  0.060  0.215 -0.000
  0.000  0.060 -0.058 -0.000  0.215
   spin  2
    eigenvalues: 
  0.989  0.989  0.996  0.996  0.996
    eigenvectors:
  0.000  0.000  1.000  0.000  0.000
  0.568  0.001  0.000  0.409  0.022
  0.001  0.568  0.000  0.022  0.409
  0.263  0.169  0.000  0.443  0.126
  0.169  0.263  0.000  0.126  0.443
    occupations:
  0.996  0.000  0.000  0.000  0.000
  0.000  0.992  0.000 -0.003 -0.002
  0.000  0.000  0.992 -0.002  0.003
  0.000 -0.003 -0.002  0.993 -0.000
  0.000 -0.002  0.003 -0.000  0.993
atomic mag. moment =    -3.886578
atom    3   Tr[ns(na)] (up, down, total) =   4.96646  1.07802  6.04448
   spin  1
    eigenvalues: 
  0.989  0.989  0.996  0.996  0.996
    eigenvectors:
  0.000  0.000  1.000  0.000  0.000
  0.180  0.388  0.000  0.139  0.293
  0.388  0.180  0.000  0.293  0.139
  0.404  0.028  0.000  0.533  0.035
  0.028  0.404  0.000  0.035  0.533
    occupations:
  0.996  0.000  0.000  0.000  0.000
  0.000  0.992  0.000  0.003 -0.002
  0.000  0.000  0.992 -0.002 -0.003
  0.000  0.003 -0.002  0.993 -0.000
  0.000 -0.002 -0.003 -0.000  0.993
   spin  2
    eigenvalues: 
  0.146  0.146  0.149  0.318  0.318
    eigenvectors:
  0.000  0.000  1.000  0.000  0.000
  0.080  0.315  0.000  0.171  0.434
  0.315  0.080  0.000  0.434  0.171
  0.552  0.054  0.000  0.378  0.017
  0.054  0.552  0.000  0.017  0.378
    occupations:
  0.149  0.000  0.000  0.000  0.000
  0.000  0.250  0.000 -0.058  0.060
  0.000  0.000  0.250  0.060  0.058
  0.000 -0.058  0.060  0.214 -0.000
  0.000  0.060  0.058 -0.000  0.214
atomic mag. moment =     3.888432
atom    4   Tr[ns(na)] (up, down, total) =   1.07920  4.96657  6.04577
   spin  1
    eigenvalues: 
  0.146  0.146  0.150  0.318  0.318
    eigenvectors:
  0.000  0.000  1.000  0.000  0.000
  0.365  0.030  0.000  0.602  0.003
  0.030  0.365  0.000  0.003  0.602
  0.454  0.151  0.000  0.221  0.174
  0.151  0.454  0.000  0.174  0.221
    occupations:
  0.150  0.000  0.000  0.000  0.000
  0.000  0.250  0.000  0.058  0.060
  0.000  0.000  0.250  0.060 -0.058
  0.000  0.058  0.060  0.214 -0.000
  0.000  0.060 -0.058 -0.000  0.214
   spin  2
    eigenvalues: 
  0.989  0.989  0.996  0.996  0.996
    eigenvectors:
  0.000  0.000  1.000  0.000  0.000
  0.567  0.001  0.000  0.410  0.022
  0.001  0.567  0.000  0.022  0.410
  0.263  0.169  0.000  0.442  0.126
  0.169  0.263  0.000  0.126  0.442
    occupations:
  0.996  0.000  0.000  0.000  0.000
  0.000  0.992  0.000 -0.003 -0.002
  0.000  0.000  0.992 -0.002  0.003
  0.000 -0.003 -0.002  0.993 -0.000
  0.000 -0.002  0.003 -0.000  0.993
atomic mag. moment =    -3.887376
atom    5   Tr[ns(na)] (up, down, total) =   4.96638  1.07738  6.04376
   spin  1
    eigenvalues: 
  0.989  0.989  0.996  0.996  0.996
    eigenvectors:
  0.000  0.000  1.000  0.000  0.000
  0.180  0.389  0.000  0.138  0.293
  0.389  0.180  0.000  0.293  0.138
  0.404  0.027  0.000  0.534  0.035
  0.027  0.404  0.000  0.035  0.534
    occupations:
  0.996  0.000  0.000  0.000  0.000
  0.000  0.992  0.000  0.003 -0.002
  0.000  0.000  0.992 -0.002 -0.003
  0.000  0.003 -0.002  0.993 -0.000
  0.000 -0.002 -0.003 -0.000  0.993
   spin  2
    eigenvalues: 
  0.146  0.146  0.149  0.318  0.318
    eigenvectors:
  0.000  0.000  1.000  0.000  0.000
  0.080  0.315  0.000  0.170  0.434
  0.315  0.080  0.000  0.434  0.170
  0.551  0.054  0.000  0.378  0.017
  0.054  0.551  0.000  0.017  0.378
    occupations:
  0.149  0.000  0.000  0.000  0.000
  0.000  0.250  0.000 -0.058  0.060
  0.000  0.000  0.250  0.060  0.058
  0.000 -0.058  0.060  0.214 -0.000
  0.000  0.060  0.058 -0.000  0.214
atomic mag. moment =     3.889002
atom    6   Tr[ns(na)] (up, down, total) =   1.07913  4.96656  6.04569
   spin  1
    eigenvalues: 
  0.146  0.146  0.150  0.318  0.318
    eigenvectors:
  0.000  0.000  1.000  0.000  0.000
  0.365  0.030  0.000  0.602  0.003
  0.030  0.365  0.000  0.003  0.602
  0.454  0.151  0.000  0.221  0.174
  0.151  0.454  0.000  0.174  0.221
    occupations:
  0.150  0.000  0.000  0.000  0.000
  0.000  0.250  0.000  0.058  0.060
  0.000  0.000  0.250  0.060 -0.058
  0.000  0.058  0.060  0.214 -0.000
  0.000  0.060 -0.058 -0.000  0.214
   spin  2
    eigenvalues: 
  0.989  0.989  0.996  0.996  0.996
    eigenvectors:
  0.000  0.000  1.000  0.000  0.000
  0.567  0.001  0.000  0.410  0.022
  0.001  0.567  0.000  0.022  0.410
  0.263  0.169  0.000  0.442  0.126
  0.169  0.263  0.000  0.126  0.442
    occupations:
  0.996  0.000  0.000  0.000  0.000
  0.000  0.992  0.000 -0.003 -0.002
  0.000  0.000  0.992 -0.002  0.003
  0.000 -0.003 -0.002  0.993 -0.000
  0.000 -0.002  0.003 -0.000  0.993
atomic mag. moment =    -3.887435
N of occupied +U levels =   36.271203
 --- exit write_ns ---
 --- in v_hubbard ---
Hubbard energy    0.4377
 -------

     total cpu time spent up to now is     8445.6 secs

     total energy              =   -3013.08394985 Ry
     Harris-Foulkes estimate   =   -3013.09499700 Ry
     estimated scf accuracy    <       0.03508414 Ry

     total magnetization       =     0.00 Bohr mag/cell
     absolute magnetization    =    25.90 Bohr mag/cell

     iteration #  6     ecut=    40.00 Ry     beta= 0.40
     CG style diagonalization
     c_bands:  1 eigenvalues not converged
     c_bands:  1 eigenvalues not converged
     c_bands:  2 eigenvalues not converged
     c_bands:  3 eigenvalues not converged
     c_bands:  2 eigenvalues not converged
     c_bands:  1 eigenvalues not converged
     c_bands:  1 eigenvalues not converged
     c_bands:  1 eigenvalues not converged
     c_bands:  2 eigenvalues not converged
     c_bands:  5 eigenvalues not converged
     c_bands:  2 eigenvalues not converged
     c_bands:  5 eigenvalues not converged
     c_bands:  5 eigenvalues not converged
     c_bands:  4 eigenvalues not converged
     c_bands:  3 eigenvalues not converged
     c_bands:  1 eigenvalues not converged
     c_bands:  2 eigenvalues not converged
     c_bands:  3 eigenvalues not converged
     c_bands:  1 eigenvalues not converged
     c_bands:  2 eigenvalues not converged
     c_bands:  1 eigenvalues not converged
     c_bands:  1 eigenvalues not converged
     c_bands:  2 eigenvalues not converged
     c_bands:  2 eigenvalues not converged
     c_bands:  3 eigenvalues not converged
     c_bands:  2 eigenvalues not converged
     c_bands:  2 eigenvalues not converged
     c_bands:  2 eigenvalues not converged
     c_bands:  2 eigenvalues not converged
     c_bands:  1 eigenvalues not converged
     c_bands:  2 eigenvalues not converged
     c_bands:  1 eigenvalues not converged
     c_bands:  3 eigenvalues not converged
     c_bands:  4 eigenvalues not converged
     c_bands:  3 eigenvalues not converged
     c_bands:  1 eigenvalues not converged
     c_bands:  2 eigenvalues not converged
     c_bands:  2 eigenvalues not converged
     c_bands:  2 eigenvalues not converged
     c_bands:  3 eigenvalues not converged
     c_bands:  2 eigenvalues not converged
     c_bands:  3 eigenvalues not converged
     c_bands:  1 eigenvalues not converged
     c_bands:  1 eigenvalues not converged
     c_bands:  2 eigenvalues not converged
     c_bands:  2 eigenvalues not converged
     c_bands:  3 eigenvalues not converged
     c_bands:  3 eigenvalues not converged
     c_bands:  2 eigenvalues not converged
     c_bands:  4 eigenvalues not converged
     c_bands:  4 eigenvalues not converged
     c_bands:  3 eigenvalues not converged
     c_bands:  3 eigenvalues not converged
     c_bands:  5 eigenvalues not converged
     c_bands:  1 eigenvalues not converged
     c_bands:  2 eigenvalues not converged
     c_bands:  3 eigenvalues not converged
     c_bands:  2 eigenvalues not converged
     c_bands:  2 eigenvalues not converged
     c_bands:  2 eigenvalues not converged
     c_bands:  2 eigenvalues not converged
     c_bands:  3 eigenvalues not converged
     c_bands:  1 eigenvalues not converged
     c_bands:  3 eigenvalues not converged
     c_bands:  1 eigenvalues not converged
     c_bands:  2 eigenvalues not converged
     c_bands:  3 eigenvalues not converged
     c_bands:  2 eigenvalues not converged
     c_bands:  2 eigenvalues not converged
     c_bands:  1 eigenvalues not converged
     c_bands:  3 eigenvalues not converged
     c_bands:  2 eigenvalues not converged
     c_bands:  2 eigenvalues not converged
     c_bands:  1 eigenvalues not converged
     c_bands:  2 eigenvalues not converged
     c_bands:  1 eigenvalues not converged
     c_bands:  2 eigenvalues not converged
     c_bands:  2 eigenvalues not converged
     c_bands:  2 eigenvalues not converged
     ethr =  1.19E-05,  avg # of iterations =  4.4
 --- enter write_ns ---
 LDA+U parameters:
U( 3)     =  2.43000000
alpha( 3) =  0.00000000
U( 4)     =  2.43000000
alpha( 4) =  0.00000000
atom    1   Tr[ns(na)] (up, down, total) =   4.96579  1.18594  6.15173
   spin  1
    eigenvalues: 
  0.988  0.988  0.996  0.997  0.997
    eigenvectors:
  0.000  0.000  1.000  0.000  0.000
  0.187  0.392  0.000  0.131  0.291
  0.392  0.187  0.000  0.291  0.131
  0.397  0.024  0.000  0.542  0.037
  0.024  0.397  0.000  0.037  0.542
    occupations:
  0.996  0.000  0.000  0.000  0.000
  0.000  0.992  0.000  0.003 -0.003
  0.000  0.000  0.992 -0.003 -0.003
  0.000  0.003 -0.003  0.993 -0.000
  0.000 -0.003 -0.003 -0.000  0.993
   spin  2
    eigenvalues: 
  0.165  0.165  0.169  0.343  0.343
    eigenvectors:
  0.000  0.000  1.000  0.000  0.000
  0.080  0.315  0.000  0.172  0.433
  0.315  0.080  0.000  0.433  0.172
  0.551  0.054  0.000  0.378  0.017
  0.054  0.551  0.000  0.017  0.378
    occupations:
  0.169  0.000  0.000  0.000  0.000
  0.000  0.273  0.000 -0.061  0.062
  0.000  0.000  0.273  0.062  0.061
  0.000 -0.061  0.062  0.235 -0.000
  0.000  0.062  0.061 -0.000  0.235
atomic mag. moment =     3.779850
atom    2   Tr[ns(na)] (up, down, total) =   1.17907  4.96525  6.14433
   spin  1
    eigenvalues: 
  0.164  0.164  0.168  0.342  0.342
    eigenvectors:
  0.000  0.000  1.000  0.000  0.000
  0.364  0.029  0.000  0.603  0.003
  0.029  0.364  0.000  0.003  0.603
  0.455  0.152  0.000  0.220  0.174
  0.152  0.455  0.000  0.174  0.220
    occupations:
  0.168  0.000  0.000  0.000  0.000
  0.000  0.272  0.000  0.061  0.062
  0.000  0.000  0.272  0.062 -0.061
  0.000  0.061  0.062  0.234 -0.000
  0.000  0.062 -0.061 -0.000  0.234
   spin  2
    eigenvalues: 
  0.988  0.988  0.996  0.996  0.996
    eigenvectors:
  0.000  0.000  1.000  0.000  0.000
  0.577  0.001  0.000  0.399  0.023
  0.001  0.577  0.000  0.023  0.399
  0.254  0.168  0.000  0.452  0.126
  0.168  0.254  0.000  0.126  0.452
    occupations:
  0.996  0.000  0.000  0.000  0.000
  0.000  0.992  0.000 -0.003 -0.003
  0.000  0.000  0.992 -0.003  0.003
  0.000 -0.003 -0.003  0.993 -0.000
  0.000 -0.003  0.003 -0.000  0.993
atomic mag. moment =    -3.786180
atom    3   Tr[ns(na)] (up, down, total) =   4.96587  1.18758  6.15345
   spin  1
    eigenvalues: 
  0.988  0.988  0.996  0.997  0.997
    eigenvectors:
  0.000  0.000  1.000  0.000  0.000
  0.187  0.392  0.000  0.131  0.290
  0.392  0.187  0.000  0.290  0.131
  0.397  0.024  0.000  0.542  0.037
  0.024  0.397  0.000  0.037  0.542
    occupations:
  0.996  0.000  0.000  0.000  0.000
  0.000  0.992  0.000  0.003 -0.003
  0.000  0.000  0.992 -0.003 -0.003
  0.000  0.003 -0.003  0.993 -0.000
  0.000 -0.003 -0.003 -0.000  0.993
   spin  2
    eigenvalues: 
  0.166  0.166  0.169  0.343  0.343
    eigenvectors:
  0.000  0.000  1.000  0.000  0.000
  0.080  0.315  0.000  0.171  0.434
  0.315  0.080  0.000  0.434  0.171
  0.551  0.054  0.000  0.378  0.017
  0.054  0.551  0.000  0.017  0.378
    occupations:
  0.169  0.000  0.000  0.000  0.000
  0.000  0.273  0.000 -0.061  0.062
  0.000  0.000  0.273  0.062  0.061
  0.000 -0.061  0.062  0.236 -0.000
  0.000  0.062  0.061 -0.000  0.236
atomic mag. moment =     3.778288
atom    4   Tr[ns(na)] (up, down, total) =   1.18235  4.96541  6.14776
   spin  1
    eigenvalues: 
  0.165  0.165  0.168  0.342  0.342
    eigenvectors:
  0.000  0.000  1.000  0.000  0.000
  0.365  0.029  0.000  0.602  0.003
  0.029  0.365  0.000  0.003  0.602
  0.453  0.152  0.000  0.221  0.174
  0.152  0.453  0.000  0.174  0.221
    occupations:
  0.168  0.000  0.000  0.000  0.000
  0.000  0.272  0.000  0.060  0.062
  0.000  0.000  0.272  0.062 -0.060
  0.000  0.060  0.062  0.235 -0.000
  0.000  0.062 -0.060 -0.000  0.235
   spin  2
    eigenvalues: 
  0.988  0.988  0.996  0.996  0.996
    eigenvectors:
  0.000  0.000  1.000  0.000  0.000
  0.578  0.001  0.000  0.397  0.024
  0.001  0.578  0.000  0.024  0.397
  0.253  0.168  0.000  0.453  0.126
  0.168  0.253  0.000  0.126  0.453
    occupations:
  0.996  0.000  0.000  0.000  0.000
  0.000  0.992  0.000 -0.003 -0.003
  0.000  0.000  0.992 -0.003  0.003
  0.000 -0.003 -0.003  0.993 -0.000
  0.000 -0.003  0.003 -0.000  0.993
atomic mag. moment =    -3.783061
atom    5   Tr[ns(na)] (up, down, total) =   4.96615  1.19029  6.15644
   spin  1
    eigenvalues: 
  0.989  0.989  0.996  0.997  0.997
    eigenvectors:
  0.000  0.000  1.000  0.000  0.000
  0.186  0.391  0.000  0.132  0.291
  0.391  0.186  0.000  0.291  0.132
  0.398  0.025  0.000  0.541  0.037
  0.025  0.398  0.000  0.037  0.541
    occupations:
  0.996  0.000  0.000  0.000  0.000
  0.000  0.992  0.000  0.003 -0.003
  0.000  0.000  0.992 -0.003 -0.003
  0.000  0.003 -0.003  0.993 -0.000
  0.000 -0.003 -0.003 -0.000  0.993
   spin  2
    eigenvalues: 
  0.166  0.166  0.170  0.344  0.344
    eigenvectors:
  0.000  0.000  1.000  0.000  0.000
  0.080  0.314  0.000  0.173  0.433
  0.314  0.080  0.000  0.433  0.173
  0.551  0.054  0.000  0.378  0.017
  0.054  0.551  0.000  0.017  0.378
    occupations:
  0.170  0.000  0.000  0.000  0.000
  0.000  0.274  0.000 -0.061  0.062
  0.000  0.000  0.274  0.062  0.061
  0.000 -0.061  0.062  0.236 -0.000
  0.000  0.062  0.061 -0.000  0.236
atomic mag. moment =     3.775859
atom    6   Tr[ns(na)] (up, down, total) =   1.18293  4.96544  6.14836
   spin  1
    eigenvalues: 
  0.165  0.165  0.169  0.343  0.343
    eigenvectors:
  0.000  0.000  1.000  0.000  0.000
  0.365  0.029  0.000  0.602  0.003
  0.029  0.365  0.000  0.003  0.602
  0.454  0.152  0.000  0.221  0.174
  0.152  0.454  0.000  0.174  0.221
    occupations:
  0.169  0.000  0.000  0.000  0.000
  0.000  0.272  0.000  0.061  0.062
  0.000  0.000  0.272  0.062 -0.061
  0.000  0.061  0.062  0.235 -0.000
  0.000  0.062 -0.061 -0.000  0.235
   spin  2
    eigenvalues: 
  0.988  0.988  0.996  0.996  0.996
    eigenvectors:
  0.000  0.000  1.000  0.000  0.000
  0.578  0.001  0.000  0.397  0.024
  0.001  0.578  0.000  0.024  0.397
  0.253  0.168  0.000  0.453  0.126
  0.168  0.253  0.000  0.126  0.453
    occupations:
  0.996  0.000  0.000  0.000  0.000
  0.000  0.992  0.000 -0.003 -0.003
  0.000  0.000  0.992 -0.003  0.003
  0.000 -0.003 -0.003  0.993 -0.000
  0.000 -0.003  0.003 -0.000  0.993
atomic mag. moment =    -3.782513
N of occupied +U levels =   36.902070
 --- exit write_ns ---
 --- in v_hubbard ---
Hubbard energy    0.4615
 -------

     total cpu time spent up to now is    10569.8 secs

     total energy              =   -3013.08655784 Ry
     Harris-Foulkes estimate   =   -3013.09534883 Ry
     estimated scf accuracy    <       0.03252767 Ry

     total magnetization       =    -0.00 Bohr mag/cell
     absolute magnetization    =    25.48 Bohr mag/cell

     iteration #  7     ecut=    40.00 Ry     beta= 0.40
     CG style diagonalization
     c_bands:  1 eigenvalues not converged
     c_bands:  1 eigenvalues not converged
     c_bands:  1 eigenvalues not converged
     c_bands:  2 eigenvalues not converged
     c_bands:  1 eigenvalues not converged
     c_bands:  1 eigenvalues not converged
     c_bands:  1 eigenvalues not converged
     c_bands:  1 eigenvalues not converged
     c_bands:  1 eigenvalues not converged
     c_bands:  1 eigenvalues not converged
     c_bands:  1 eigenvalues not converged
     c_bands:  1 eigenvalues not converged
     c_bands:  1 eigenvalues not converged
     c_bands:  1 eigenvalues not converged
     ethr =  1.11E-05,  avg # of iterations =  3.1
 --- enter write_ns ---
 LDA+U parameters:
U( 3)     =  2.43000000
alpha( 3) =  0.00000000
U( 4)     =  2.43000000
alpha( 4) =  0.00000000
atom    1   Tr[ns(na)] (up, down, total) =   4.96156  1.10213  6.06369
   spin  1
    eigenvalues: 
  0.988  0.988  0.995  0.996  0.996
    eigenvectors:
  0.000  0.000  1.000  0.000  0.000
  0.185  0.388  0.000  0.137  0.291
  0.388  0.185  0.000  0.291  0.137
  0.401  0.026  0.000  0.537  0.036
  0.026  0.401  0.000  0.036  0.537
    occupations:
  0.995  0.000  0.000  0.000  0.000
  0.000  0.991  0.000  0.003 -0.003
  0.000  0.000  0.991 -0.003 -0.003
  0.000  0.003 -0.003  0.992 -0.000
  0.000 -0.003 -0.003 -0.000  0.992
   spin  2
    eigenvalues: 
  0.149  0.149  0.152  0.326  0.326
    eigenvectors:
  0.000  0.000  1.000  0.000  0.000
  0.084  0.313  0.000  0.176  0.427
  0.313  0.084  0.000  0.427  0.176
  0.550  0.054  0.000  0.380  0.017
  0.054  0.550  0.000  0.017  0.380
    occupations:
  0.152  0.000  0.000  0.000  0.000
  0.000  0.256  0.000 -0.061  0.062
  0.000  0.000  0.256  0.062  0.061
  0.000 -0.061  0.062  0.219 -0.000
  0.000  0.062  0.061 -0.000  0.219
atomic mag. moment =     3.859423
atom    2   Tr[ns(na)] (up, down, total) =   1.12577  4.96375  6.08952
   spin  1
    eigenvalues: 
  0.153  0.153  0.157  0.331  0.331
    eigenvectors:
  0.000  0.000  1.000  0.000  0.000
  0.373  0.027  0.000  0.598  0.003
  0.027  0.373  0.000  0.003  0.598
  0.450  0.151  0.000  0.226  0.173
  0.151  0.450  0.000  0.173  0.226
    occupations:
  0.157  0.000  0.000  0.000  0.000
  0.000  0.260  0.000  0.062  0.062
  0.000  0.000  0.260  0.062 -0.062
  0.000  0.062  0.062  0.224 -0.000
  0.000  0.062 -0.062 -0.000  0.224
   spin  2
    eigenvalues: 
  0.988  0.988  0.995  0.996  0.996
    eigenvectors:
  0.000  0.000  1.000  0.000  0.000
  0.573  0.001  0.000  0.404  0.022
  0.001  0.573  0.000  0.022  0.404
  0.258  0.168  0.000  0.448  0.126
  0.168  0.258  0.000  0.126  0.448
    occupations:
  0.995  0.000  0.000  0.000  0.000
  0.000  0.992  0.000 -0.003 -0.002
  0.000  0.000  0.992 -0.002  0.003
  0.000 -0.003 -0.002  0.993 -0.000
  0.000 -0.002  0.003 -0.000  0.993
atomic mag. moment =    -3.837975
atom    3   Tr[ns(na)] (up, down, total) =   4.96125  1.09644  6.05769
   spin  1
    eigenvalues: 
  0.987  0.987  0.995  0.996  0.996
    eigenvectors:
  0.000  0.000  1.000  0.000  0.000
  0.183  0.388  0.000  0.137  0.291
  0.388  0.183  0.000  0.291  0.137
  0.402  0.027  0.000  0.536  0.036
  0.027  0.402  0.000  0.036  0.536
    occupations:
  0.995  0.000  0.000  0.000  0.000
  0.000  0.991  0.000  0.003 -0.003
  0.000  0.000  0.991 -0.003 -0.003
  0.000  0.003 -0.003  0.992 -0.000
  0.000 -0.003 -0.003 -0.000  0.992
   spin  2
    eigenvalues: 
  0.147  0.147  0.151  0.325  0.325
    eigenvectors:
  0.000  0.000  1.000  0.000  0.000
  0.084  0.311  0.000  0.179  0.426
  0.311  0.084  0.000  0.426  0.179
  0.551  0.054  0.000  0.378  0.017
  0.054  0.551  0.000  0.017  0.378
    occupations:
  0.151  0.000  0.000  0.000  0.000
  0.000  0.255  0.000 -0.061  0.062
  0.000  0.000  0.255  0.062  0.061
  0.000 -0.061  0.062  0.218 -0.000
  0.000  0.062  0.061 -0.000  0.218
atomic mag. moment =     3.864805
atom    4   Tr[ns(na)] (up, down, total) =   1.11480  4.96314  6.07794
   spin  1
    eigenvalues: 
  0.151  0.151  0.155  0.329  0.329
    eigenvectors:
  0.000  0.000  1.000  0.000  0.000
  0.369  0.027  0.000  0.602  0.003
  0.027  0.369  0.000  0.003  0.602
  0.454  0.151  0.000  0.223  0.172
  0.151  0.454  0.000  0.172  0.223
    occupations:
  0.155  0.000  0.000  0.000  0.000
  0.000  0.259  0.000  0.062  0.062
  0.000  0.000  0.259  0.062 -0.062
  0.000  0.062  0.062  0.221 -0.000
  0.000  0.062 -0.062 -0.000  0.221
   spin  2
    eigenvalues: 
  0.988  0.988  0.995  0.996  0.996
    eigenvectors:
  0.000  0.000  1.000  0.000  0.000
  0.568  0.001  0.000  0.410  0.021
  0.001  0.568  0.000  0.021  0.410
  0.263  0.168  0.000  0.443  0.126
  0.168  0.263  0.000  0.126  0.443
    occupations:
  0.995  0.000  0.000  0.000  0.000
  0.000  0.991  0.000 -0.003 -0.002
  0.000  0.000  0.991 -0.002  0.003
  0.000 -0.003 -0.002  0.993 -0.000
  0.000 -0.002  0.003 -0.000  0.993
atomic mag. moment =    -3.848337
atom    5   Tr[ns(na)] (up, down, total) =   4.96011  1.08749  6.04760
   spin  1
    eigenvalues: 
  0.987  0.987  0.995  0.996  0.996
    eigenvectors:
  0.000  0.000  1.000  0.000  0.000
  0.186  0.391  0.000  0.132  0.291
  0.391  0.186  0.000  0.291  0.132
  0.398  0.025  0.000  0.541  0.037
  0.025  0.398  0.000  0.037  0.541
    occupations:
  0.995  0.000  0.000  0.000  0.000
  0.000  0.991  0.000  0.003 -0.003
  0.000  0.000  0.991 -0.003 -0.003
  0.000  0.003 -0.003  0.992 -0.000
  0.000 -0.003 -0.003 -0.000  0.992
   spin  2
    eigenvalues: 
  0.146  0.146  0.150  0.323  0.323
    eigenvectors:
  0.000  0.000  1.000  0.000  0.000
  0.084  0.314  0.000  0.174  0.429
  0.314  0.084  0.000  0.429  0.174
  0.549  0.053  0.000  0.380  0.018
  0.053  0.549  0.000  0.018  0.380
    occupations:
  0.150  0.000  0.000  0.000  0.000
  0.000  0.253  0.000 -0.061  0.062
  0.000  0.000  0.253  0.062  0.061
  0.000 -0.061  0.062  0.216 -0.000
  0.000  0.062  0.061 -0.000  0.216
atomic mag. moment =     3.872614
atom    6   Tr[ns(na)] (up, down, total) =   1.11244  4.96303  6.07546
   spin  1
    eigenvalues: 
  0.150  0.150  0.154  0.329  0.329
    eigenvectors:
  0.000  0.000  1.000  0.000  0.000
  0.369  0.027  0.000  0.602  0.003
  0.027  0.369  0.000  0.003  0.602
  0.454  0.151  0.000  0.223  0.172
  0.151  0.454  0.000  0.172  0.223
    occupations:
  0.154  0.000  0.000  0.000  0.000
  0.000  0.258  0.000  0.062  0.062
  0.000  0.000  0.258  0.062 -0.062
  0.000  0.062  0.062  0.221 -0.000
  0.000  0.062 -0.062 -0.000  0.221
   spin  2
    eigenvalues: 
  0.988  0.988  0.995  0.996  0.996
    eigenvectors:
  0.000  0.000  1.000  0.000  0.000
  0.567  0.001  0.000  0.410  0.021
  0.001  0.567  0.000  0.021  0.410
  0.263  0.168  0.000  0.442  0.126
  0.168  0.263  0.000  0.126  0.442
    occupations:
  0.995  0.000  0.000  0.000  0.000
  0.000  0.991  0.000 -0.003 -0.002
  0.000  0.000  0.991 -0.002  0.003
  0.000 -0.003 -0.002  0.993 -0.000
  0.000 -0.002  0.003 -0.000  0.993
atomic mag. moment =    -3.850587
N of occupied +U levels =   36.411901
 --- exit write_ns ---
 --- in v_hubbard ---
Hubbard energy    0.4630
 -------

     total cpu time spent up to now is    11889.6 secs

     total energy              =   -3013.09260824 Ry
     Harris-Foulkes estimate   =   -3013.09347873 Ry
     estimated scf accuracy    <       0.00653408 Ry

     total magnetization       =     0.00 Bohr mag/cell
     absolute magnetization    =    25.78 Bohr mag/cell

     iteration #  8     ecut=    40.00 Ry     beta= 0.40
     CG style diagonalization
     c_bands:  1 eigenvalues not converged
     c_bands:  1 eigenvalues not converged
     c_bands:  1 eigenvalues not converged
     c_bands:  1 eigenvalues not converged
     c_bands:  1 eigenvalues not converged
     c_bands:  1 eigenvalues not converged
     c_bands:  2 eigenvalues not converged
     c_bands:  1 eigenvalues not converged
     c_bands:  1 eigenvalues not converged
     c_bands:  1 eigenvalues not converged
     c_bands:  1 eigenvalues not converged
     c_bands:  1 eigenvalues not converged
     c_bands:  1 eigenvalues not converged
     c_bands:  2 eigenvalues not converged
     c_bands:  1 eigenvalues not converged
     c_bands:  1 eigenvalues not converged
     c_bands:  1 eigenvalues not converged
     c_bands:  1 eigenvalues not converged
[...]
    -6.5465  -6.4286  -6.3428  -6.3287  -6.3084  -6.2454  -6.2185  -6.2129
     0.1543   0.2794   0.2878   0.5351   0.6182   0.7398   3.8631   3.8841
     4.0379   4.3302   4.3337   4.3680   4.3741   4.4038   4.5801   4.6105
     4.6928   4.7279   4.8709   4.9206   4.9313   4.9882   5.0913   5.1105
     5.4346   5.6157   5.6669   5.7207   5.9509   6.1455   6.3028   6.3034
     6.3960   6.4533   6.5460   6.5755   6.7756   6.8461   6.8973   6.9525
     6.9632   7.0524   7.1743   7.3754   7.4386   7.4933   7.6459   7.6753
     7.7062   7.7754   7.8818   7.9343   8.1165   8.1278   8.2514   8.2954
     8.3470   8.4223   8.4445   8.5032   8.5350   8.6285   8.6619   9.0127
     9.0276   9.0912   9.2529   9.2854   9.4616   9.5056   9.5918   9.6306
     9.7666   9.7839   9.9401  11.7690  11.7783  11.7858  11.8351  11.8601
    11.9089  11.9674  11.9769  12.0072  12.5385  12.5818  12.7248  12.9502
    13.0161  13.1112  13.6041  13.6417  13.6843  13.8538  14.0197  14.1413
    14.7156  14.7849  14.9138  15.0388  15.1511  15.2556  15.3781  15.4960
    15.5711  15.7478  15.7658  15.8392  18.9378  19.0557  19.5671  19.7478
    19.7835  20.1789  20.5118  20.5419  20.8593  20.8709  20.9806  21.2526
    21.3133  21.4787  21.5906  21.5960  21.6073  21.6807  22.0569  22.0771
    22.2212  22.4812  22.5196  22.5970  22.9178  23.0107  23.0689  23.2006
    23.2325  23.3123  23.5819  23.6995  23.6999  23.8932  23.9717  24.0004
    24.1259  24.2276  24.2612  24.3560  24.5033  24.6134  24.6582  24.8333
    24.9643  25.1216  25.3993  25.5479  26.1881  26.2601  26.6094  26.8911
    26.9899  27.0759  27.6932  28.1065  28.2080  28.2590  28.3835  28.4488
    28.5879  28.7673  28.9812  29.2156  29.3682  29.3956  29.6614  29.7219
    29.8023  29.8878  30.1144  30.2135  30.5753  30.6054  30.8846  30.8926
    30.9530  31.3143  31.3178  31.5499  31.5607  31.9638  32.0382  32.1695
    32.2324  32.5381  32.5443  32.6999  32.8113  32.9258  33.1202  33.2990
    33.3118  33.4401  33.5024  33.6011  33.6510  33.9145  33.9169  33.9404
    34.1017  34.2136  34.2389  34.3342  34.6931  34.8005  35.0764  35.0790
    35.1232  35.2662  35.4474  35.6037  35.8221  35.8898

     occupation numbers 
     1.0000   1.0000   1.0000   1.0000   1.0000   1.0000   1.0000   1.0000
     1.0000   1.0000   1.0000   1.0000   1.0000   1.0000   1.0000   1.0000
     1.0000   1.0000   1.0000   1.0000   1.0000   1.0000   1.0000   1.0000
     1.0000   1.0000   1.0000   1.0000   1.0000   1.0000   1.0000   1.0000
     1.0000   1.0000   1.0000   1.0000   1.0000   1.0000   1.0000   1.0000
     1.0000   1.0000   1.0000   1.0000   1.0000   1.0000   1.0000   1.0000
     1.0000   1.0000   1.0000   1.0000   1.0000   1.0000   1.0000   1.0000
     1.0000   1.0000   1.0000   1.0000   1.0000   1.0000   1.0000   1.0000
     1.0000   1.0000   1.0000   1.0000   1.0000   1.0000   1.0000   1.0000
     1.0000   1.0000   1.0000   1.0000   1.0000   1.0000   1.0000   1.0000
     1.0000   1.0000   1.0000   1.0000   1.0000   1.0000   1.0000   1.0000
     1.0000   1.0000   1.0000   1.0000   1.0000   1.0000   1.0000   1.0000
     1.0000   1.0000   1.0000   1.0000   1.0000   1.0000   1.0000   1.0000
     1.0000   1.0000   1.0000   1.0000   1.0000   1.0000   1.0000   1.0000
     1.0000   1.0000   1.0000   1.0000   1.0000   1.0000   1.0000   1.0000
     1.0000   1.0000   1.0000   1.0000   1.0000   1.0000   1.0000   1.0000
     1.0000   1.0000   1.0000   1.0000   1.0000   1.0000   1.0000   1.0000
     1.0000   1.0000   1.0000   1.0000   1.0000   1.0000   1.0000   1.0000
     1.0000   1.0000   1.0000   0.0000   0.0000   0.0000   0.0000   0.0000
     0.0000   0.0000   0.0000   0.0000   0.0000   0.0000   0.0000   0.0000
     0.0000   0.0000   0.0000   0.0000   0.0000   0.0000   0.0000   0.0000
     0.0000   0.0000   0.0000   0.0000   0.0000   0.0000   0.0000   0.0000
     0.0000   0.0000   0.0000   0.0000   0.0000   0.0000   0.0000   0.0000
     0.0000   0.0000   0.0000   0.0000   0.0000   0.0000   0.0000   0.0000
     0.0000   0.0000   0.0000   0.0000   0.0000   0.0000   0.0000   0.0000
     0.0000   0.0000   0.0000   0.0000   0.0000   0.0000   0.0000   0.0000
     0.0000   0.0000   0.0000   0.0000   0.0000   0.0000   0.0000   0.0000
     0.0000   0.0000   0.0000   0.0000   0.0000   0.0000   0.0000   0.0000
     0.0000   0.0000   0.0000   0.0000   0.0000   0.0000   0.0000   0.0000
     0.0000   0.0000   0.0000   0.0000   0.0000   0.0000   0.0000   0.0000
     0.0000   0.0000   0.0000   0.0000   0.0000   0.0000   0.0000   0.0000
     0.0000   0.0000   0.0000   0.0000   0.0000   0.0000   0.0000   0.0000
     0.0000   0.0000   0.0000   0.0000   0.0000   0.0000   0.0000   0.0000
     0.0000   0.0000   0.0000   0.0000   0.0000   0.0000   0.0000   0.0000
     0.0000   0.0000   0.0000   0.0000   0.0000   0.0000   0.0000   0.0000
     0.0000   0.0000   0.0000   0.0000   0.0000   0.0000   0.0000   0.0000
     0.0000   0.0000   0.0000   0.0000   0.0000   0.0000

          k = 0.3333-0.5774-0.0668 ( 11136 PWs)   bands (ev):

   -79.4756 -79.4752 -79.4745 -74.6902 -74.6902 -74.6894 -45.8713 -45.8710
   -45.8703 -45.8126 -45.8125 -45.8122 -45.8122 -45.8116 -45.8115 -41.2494
   -41.2493 -41.2486 -41.2005 -41.2005 -41.2004 -41.2004 -41.1997 -41.1997
   -12.0006 -12.0005 -12.0005 -11.9968 -11.9967 -11.9967 -11.9501 -11.9500
   -11.9500 -11.9406 -11.9406 -11.9405 -11.9160 -11.9159 -11.9159 -11.9115
   -11.9114 -11.9114 -11.9019 -11.9019 -11.9019 -11.8989 -11.8988 -11.8988
   -11.8831 -11.8830 -11.8830 -11.8795 -11.8795 -11.8794  -7.4072  -7.4067
    -7.4065  -7.3180  -7.3179  -7.3176  -6.6960  -6.6958  -6.6956  -6.5109
    -6.5109  -6.5107  -6.3463  -6.3460  -6.3459  -6.2191  -6.2190  -6.2188
     0.3907   0.3908   0.3910   0.4380   0.4380   0.4382   3.9059   3.9061
     3.9065   4.3206   4.3206   4.3208   4.4688   4.4689   4.4691   4.8315
     4.8317   4.8318   4.9245   4.9245   4.9250   5.0530   5.0533   5.0534
     5.7085   5.7086   5.7087   5.9154   5.9156   5.9157   6.2620   6.2620
     6.2622   6.4893   6.4893   6.4893   6.8150   6.8151   6.8152   7.0881
     7.0881   7.0882   7.2901   7.2902   7.2903   7.6089   7.6090   7.6091
     7.8446   7.8447   7.8448   7.9396   7.9397   7.9398   8.3422   8.3424
     8.3425   8.4974   8.4974   8.4975   8.6426   8.6427   8.6428   9.1492
     9.1494   9.1495   9.2791   9.2793   9.2794   9.4524   9.4526   9.4528
     9.7945   9.7949   9.7950  11.8049  11.8051  11.8052  11.9135  11.9136
    11.9137  11.9772  11.9774  11.9777  12.6218  12.6218  12.6221  12.9714
    12.9716  12.9717  13.6078  13.6079  13.6080  13.8727  13.8728  13.8729
    14.8142  14.8142  14.8143  14.9963  14.9964  14.9964  15.4395  15.4396
    15.4396  15.7745  15.7746  15.7746  19.4149  19.4156  19.4157  19.9961
    19.9962  19.9963  20.6373  20.6374  20.6374  21.0086  21.0089  21.0089
    21.2839  21.2839  21.2840  21.8871  21.8872  21.8873  22.0088  22.0089
    22.0090  22.4941  22.4941  22.4942  23.0680  23.0682  23.0683  23.1960
    23.1961  23.1962  23.8569  23.8570  23.8571  24.0296  24.0297  24.0297
    24.1631  24.1631  24.1631  24.5625  24.5626  24.5626  24.9111  24.9112
    24.9112  25.2477  25.2478  25.2478  26.0777  26.0777  26.0778  26.8928
    26.8928  26.8929  27.4402  27.4402  27.4403  28.4071  28.4071  28.4072
    28.8394  28.8394  28.8395  29.4365  29.4365  29.4366  29.8910  29.8910
    29.8911  30.1689  30.1689  30.1689  30.7107  30.7108  30.7108  31.1237
    31.1239  31.1239  31.4863  31.4864  31.4864  31.9125  31.9126  31.9126
    32.1762  32.1762  32.1762  33.1632  33.1633  33.1633  33.3817  33.3818
    33.3818  33.6601  33.6601  33.6602  33.8356  33.8356  33.8357  34.2949
    34.2949  34.2952  34.5517  34.5519  34.5521  35.0647  35.0648  35.0649
    35.2354  35.2357  35.2358  35.9470  35.9475  35.9478

     occupation numbers 
     1.0000   1.0000   1.0000   1.0000   1.0000   1.0000   1.0000   1.0000
     1.0000   1.0000   1.0000   1.0000   1.0000   1.0000   1.0000   1.0000
     1.0000   1.0000   1.0000   1.0000   1.0000   1.0000   1.0000   1.0000
     1.0000   1.0000   1.0000   1.0000   1.0000   1.0000   1.0000   1.0000
     1.0000   1.0000   1.0000   1.0000   1.0000   1.0000   1.0000   1.0000
     1.0000   1.0000   1.0000   1.0000   1.0000   1.0000   1.0000   1.0000
     1.0000   1.0000   1.0000   1.0000   1.0000   1.0000   1.0000   1.0000
     1.0000   1.0000   1.0000   1.0000   1.0000   1.0000   1.0000   1.0000
     1.0000   1.0000   1.0000   1.0000   1.0000   1.0000   1.0000   1.0000
     1.0000   1.0000   1.0000   1.0000   1.0000   1.0000   1.0000   1.0000
     1.0000   1.0000   1.0000   1.0000   1.0000   1.0000   1.0000   1.0000
     1.0000   1.0000   1.0000   1.0000   1.0000   1.0000   1.0000   1.0000
     1.0000   1.0000   1.0000   1.0000   1.0000   1.0000   1.0000   1.0000
     1.0000   1.0000   1.0000   1.0000   1.0000   1.0000   1.0000   1.0000
     1.0000   1.0000   1.0000   1.0000   1.0000   1.0000   1.0000   1.0000
     1.0000   1.0000   1.0000   1.0000   1.0000   1.0000   1.0000   1.0000
     1.0000   1.0000   1.0000   1.0000   1.0000   1.0000   1.0000   1.0000
     1.0000   1.0000   1.0000   1.0000   1.0000   1.0000   1.0000   1.0000
     1.0000   1.0000   1.0000   0.0000   0.0000   0.0000   0.0000   0.0000
     0.0000   0.0000   0.0000   0.0000   0.0000   0.0000   0.0000   0.0000
     0.0000   0.0000   0.0000   0.0000   0.0000   0.0000   0.0000   0.0000
     0.0000   0.0000   0.0000   0.0000   0.0000   0.0000   0.0000   0.0000
     0.0000   0.0000   0.0000   0.0000   0.0000   0.0000   0.0000   0.0000
     0.0000   0.0000   0.0000   0.0000   0.0000   0.0000   0.0000   0.0000
     0.0000   0.0000   0.0000   0.0000   0.0000   0.0000   0.0000   0.0000
     0.0000   0.0000   0.0000   0.0000   0.0000   0.0000   0.0000   0.0000
     0.0000   0.0000   0.0000   0.0000   0.0000   0.0000   0.0000   0.0000
     0.0000   0.0000   0.0000   0.0000   0.0000   0.0000   0.0000   0.0000
     0.0000   0.0000   0.0000   0.0000   0.0000   0.0000   0.0000   0.0000
     0.0000   0.0000   0.0000   0.0000   0.0000   0.0000   0.0000   0.0000
     0.0000   0.0000   0.0000   0.0000   0.0000   0.0000   0.0000   0.0000
     0.0000   0.0000   0.0000   0.0000   0.0000   0.0000   0.0000   0.0000
     0.0000   0.0000   0.0000   0.0000   0.0000   0.0000   0.0000   0.0000
     0.0000   0.0000   0.0000   0.0000   0.0000   0.0000   0.0000   0.0000
     0.0000   0.0000   0.0000   0.0000   0.0000   0.0000   0.0000   0.0000
     0.0000   0.0000   0.0000   0.0000   0.0000   0.0000   0.0000   0.0000
     0.0000   0.0000   0.0000   0.0000   0.0000   0.0000

          k = 0.3333-0.5774-0.1335 ( 11151 PWs)   bands (ev):

   -79.4756 -79.4752 -79.4745 -74.6902 -74.6902 -74.6894 -45.8713 -45.8710
   -45.8703 -45.8126 -45.8125 -45.8122 -45.8122 -45.8116 -45.8115 -41.2494
   -41.2493 -41.2486 -41.2005 -41.2005 -41.2004 -41.2004 -41.1997 -41.1997
   -11.9999 -11.9997 -11.9997 -11.9974 -11.9974 -11.9974 -11.9488 -11.9488
   -11.9487 -11.9429 -11.9428 -11.9428 -11.9151 -11.9150 -11.9149 -11.9124
   -11.9124 -11.9124 -11.9021 -11.9020 -11.9020 -11.9002 -11.9001 -11.9000
   -11.8823 -11.8823 -11.8822 -11.8801 -11.8800 -11.8800  -7.4028  -7.4022
    -7.4021  -7.3245  -7.3243  -7.3240  -6.6717  -6.6715  -6.6713  -6.5523
    -6.5522  -6.5520  -6.3144  -6.3141  -6.3140  -6.2320  -6.2319  -6.2316
     0.4005   0.4006   0.4007   0.4280   0.4280   0.4281   3.9009   3.9010
     3.9014   4.3568   4.3568   4.3571   4.4457   4.4458   4.4459   4.8205
     4.8207   4.8207   4.9296   4.9296   4.9301   5.0524   5.0527   5.0528
     5.6808   5.6808   5.6810   5.9291   5.9293   5.9294   6.2631   6.2631
     6.2633   6.5159   6.5159   6.5160   6.8219   6.8220   6.8220   7.1133
     7.1134   7.1134   7.2237   7.2239   7.2239   7.6052   7.6053   7.6055
     7.8240   7.8241   7.8241   8.0025   8.0026   8.0027   8.3360   8.3361
     8.3362   8.4828   8.4828   8.4829   8.6485   8.6486   8.6487   9.1593
     9.1596   9.1596   9.2571   9.2574   9.2575   9.4514   9.4516   9.4518
     9.8020   9.8024   9.8024  11.8056  11.8058  11.8058  11.9118  11.9119
    11.9120  11.9791  11.9793  11.9796  12.6319  12.6319  12.6322  12.9658
    12.9659  12.9661  13.6223  13.6224  13.6225  13.8226  13.8227  13.8228
    14.8795  14.8796  14.8797  14.9909  14.9911  14.9912  15.4817  15.4819
    15.4821  15.6956  15.6956  15.6957  19.4210  19.4216  19.4218  19.9876
    19.9878  19.9879  20.7190  20.7191  20.7191  20.9543  20.9545  20.9545
    21.3087  21.3088  21.3088  21.7218  21.7220  21.7222  22.1709  22.1709
    22.1710  22.4925  22.4925  22.4926  23.0521  23.0523  23.0524  23.1915
    23.1916  23.1917  23.8634  23.8634  23.8636  23.9867  23.9868  23.9868
    24.1824  24.1825  24.1825  24.3949  24.3949  24.3950  25.0283  25.0285
    25.0285  25.2484  25.2484  25.2485  26.2273  26.2274  26.2275  26.7132
    26.7133  26.7134  27.7062  27.7063  27.7063  28.3341  28.3341  28.3342
    28.8665  28.8666  28.8666  29.3090  29.3091  29.3091  29.8178  29.8178
    29.8179  30.0050  30.0050  30.0051  30.7691  30.7692  30.7693  31.0110
    31.0111  31.0111  31.6081  31.6082  31.6083  31.9757  31.9758  31.9758
    32.5631  32.5632  32.5632  33.1500  33.1501  33.1501  33.3305  33.3305
    33.3306  33.5020  33.5020  33.5021  33.8678  33.8678  33.8679  34.1210
    34.1211  34.1213  34.5423  34.5425  34.5425  34.8823  34.8823  34.8825
    35.4536  35.4538  35.4541  35.9545  35.9553  35.9555

     occupation numbers 
     1.0000   1.0000   1.0000   1.0000   1.0000   1.0000   1.0000   1.0000
     1.0000   1.0000   1.0000   1.0000   1.0000   1.0000   1.0000   1.0000
     1.0000   1.0000   1.0000   1.0000   1.0000   1.0000   1.0000   1.0000
     1.0000   1.0000   1.0000   1.0000   1.0000   1.0000   1.0000   1.0000
     1.0000   1.0000   1.0000   1.0000   1.0000   1.0000   1.0000   1.0000
     1.0000   1.0000   1.0000   1.0000   1.0000   1.0000   1.0000   1.0000
     1.0000   1.0000   1.0000   1.0000   1.0000   1.0000   1.0000   1.0000
     1.0000   1.0000   1.0000   1.0000   1.0000   1.0000   1.0000   1.0000
     1.0000   1.0000   1.0000   1.0000   1.0000   1.0000   1.0000   1.0000
     1.0000   1.0000   1.0000   1.0000   1.0000   1.0000   1.0000   1.0000
     1.0000   1.0000   1.0000   1.0000   1.0000   1.0000   1.0000   1.0000
     1.0000   1.0000   1.0000   1.0000   1.0000   1.0000   1.0000   1.0000
     1.0000   1.0000   1.0000   1.0000   1.0000   1.0000   1.0000   1.0000
     1.0000   1.0000   1.0000   1.0000   1.0000   1.0000   1.0000   1.0000
     1.0000   1.0000   1.0000   1.0000   1.0000   1.0000   1.0000   1.0000
     1.0000   1.0000   1.0000   1.0000   1.0000   1.0000   1.0000   1.0000
     1.0000   1.0000   1.0000   1.0000   1.0000   1.0000   1.0000   1.0000
     1.0000   1.0000   1.0000   1.0000   1.0000   1.0000   1.0000   1.0000
     1.0000   1.0000   1.0000   0.0000   0.0000   0.0000   0.0000   0.0000
     0.0000   0.0000   0.0000   0.0000   0.0000   0.0000   0.0000   0.0000
     0.0000   0.0000   0.0000   0.0000   0.0000   0.0000   0.0000   0.0000
     0.0000   0.0000   0.0000   0.0000   0.0000   0.0000   0.0000   0.0000
     0.0000   0.0000   0.0000   0.0000   0.0000   0.0000   0.0000   0.0000
     0.0000   0.0000   0.0000   0.0000   0.0000   0.0000   0.0000   0.0000
     0.0000   0.0000   0.0000   0.0000   0.0000   0.0000   0.0000   0.0000
     0.0000   0.0000   0.0000   0.0000   0.0000   0.0000   0.0000   0.0000
     0.0000   0.0000   0.0000   0.0000   0.0000   0.0000   0.0000   0.0000
     0.0000   0.0000   0.0000   0.0000   0.0000   0.0000   0.0000   0.0000
     0.0000   0.0000   0.0000   0.0000   0.0000   0.0000   0.0000   0.0000
     0.0000   0.0000   0.0000   0.0000   0.0000   0.0000   0.0000   0.0000
     0.0000   0.0000   0.0000   0.0000   0.0000   0.0000   0.0000   0.0000
     0.0000   0.0000   0.0000   0.0000   0.0000   0.0000   0.0000   0.0000
     0.0000   0.0000   0.0000   0.0000   0.0000   0.0000   0.0000   0.0000
     0.0000   0.0000   0.0000   0.0000   0.0000   0.0000   0.0000   0.0000
     0.0000   0.0000   0.0000   0.0000   0.0000   0.0000   0.0000   0.0000
     0.0000   0.0000   0.0000   0.0000   0.0000   0.0000   0.0000   0.0000
     0.0000   0.0000   0.0000   0.0000   0.0000   0.0000

     the Fermi energy is    10.8904 ev

!    total energy              =   -3013.09280652 Ry
     Harris-Foulkes estimate   =   -3013.09280694 Ry
     estimated scf accuracy    <       0.00000063 Ry

     The total energy is the sum of the following terms:

     one-electron contribution =   -1374.86611234 Ry
     hartree contribution      =     856.48276224 Ry
     xc contribution           =    -494.27665368 Ry
     ewald contribution        =   -2000.90100253 Ry
     Hubbard energy            =       0.46819980 Ry
     smearing contrib. (-TS)   =      -0.00000000 Ry

     total magnetization       =    -0.00 Bohr mag/cell
     absolute magnetization    =    25.71 Bohr mag/cell

     convergence has been achieved in  13 iterations

     Writing output data file BiFeO3.save/

     init_run     :    752.33s CPU    135.97s WALL (       1 calls)
     electrons    : 116574.19s CPU  19604.76s WALL (       1 calls)

     Called by init_run:
     wfcinit      :    741.02s CPU    131.20s WALL (       1 calls)
     wfcinit:atom :      4.18s CPU      0.71s WALL (      88 calls)
     wfcinit:wfcr :    686.86s CPU    119.35s WALL (      88 calls)
     potinit      :      2.14s CPU      0.41s WALL (       1 calls)
     hinit0       :      4.65s CPU      3.10s WALL (       1 calls)

     Called by electrons:
     c_bands      : 112455.97s CPU  18906.77s WALL (      13 calls)
     sum_band     :   4058.43s CPU    683.89s WALL (      13 calls)
     v_of_rho     :      3.85s CPU      0.71s WALL (      14 calls)
     v_h          :      1.21s CPU      0.24s WALL (      14 calls)
     v_xc         :      2.64s CPU      0.47s WALL (      14 calls)
     newd         :     57.13s CPU     12.57s WALL (      14 calls)
     mix_rho      :      2.31s CPU      1.13s WALL (      13 calls)

     Called by c_bands:
     init_us_2    :     90.82s CPU     15.33s WALL (    2464 calls)
     ccgdiagg     : 104153.26s CPU  17449.66s WALL (    1145 calls)
     wfcrot       :   8867.27s CPU   1555.97s WALL (    1145 calls)

     Called by sum_band:
     sum_band:bec :      0.98s CPU      0.65s WALL (    1144 calls)
     addusdens    :    135.48s CPU     26.44s WALL (      13 calls)

     Called by *cgdiagg:
     h_psi        :  63092.70s CPU   9501.81s WALL (  806294 calls)
     s_psi        :  19815.49s CPU   4364.52s WALL ( 1611531 calls)
     cdiaghg      :    227.32s CPU     97.99s WALL (    1145 calls)

     Called by h_psi:
     h_psi:pot    :  56384.35s CPU   9182.57s WALL (  806294 calls)
     h_psi:calbec :  13370.12s CPU   2231.82s WALL (  806294 calls)
     vloc_psi     :  24779.93s CPU   4141.12s WALL (  806294 calls)
     add_vuspsi   :  18219.44s CPU   2807.52s WALL (  806294 calls)
     vhpsi        :   6598.38s CPU    297.70s WALL (  806294 calls)
     hs_1psi      :  62311.05s CPU  10428.34s WALL (  805149 calls)
     s_1psi       :  24870.89s CPU   4177.34s WALL (  805149 calls)

     General routines
     calbec       :  26540.73s CPU   4500.04s WALL ( 2420113 calls)
     fft          :      5.23s CPU      2.27s WALL (     148 calls)
     ffts         :      0.50s CPU      0.15s WALL (      54 calls)
     fftw         :  26750.36s CPU   4470.37s WALL ( 2619894 calls)
     interpolate  :      0.50s CPU      0.50s WALL (      28 calls)
     davcio       :      0.03s CPU      0.17s WALL (      88 calls)


     Hubbard U routines
     new_ns       :     73.13s CPU     12.25s WALL (      13 calls)
     vhpsi        :   6598.38s CPU    297.70s WALL (  806294 calls)

     PWSCF        :   1d 8h35m CPU      5h29m WALL


   This run was terminated on:   6:20:23  10Apr2019            

=------------------------------------------------------------------------------=
   JOB DONE.
=------------------------------------------------------------------------------=
